VARIABLES  = "X","Y","Z", "Ki"
ZONE T="0.000000000000e+000s", N=1681, E=1600, F=FEPOINT, ET=QUADRILATERAL
STRANDID=1, SOLUTIONTIME=0.000000000000e+000
0.000000000000e+000 0.000000000000e+000 0.000000000000e+000 -33.4591415614
5.000000000000e-002 0.000000000000e+000 0.000000000000e+000 -33.694858251
5.000000000000e-002 0.000000000000e+000 2.500000000000e-002 -33.9586758351
0.000000000000e+000 0.000000000000e+000 2.500000000000e-002 -33.7320020003
5.000000000000e-002 0.000000000000e+000 5.000000000000e-002 -33.6404591412
0.000000000000e+000 0.000000000000e+000 5.000000000000e-002 -33.3864464658
5.000000000000e-002 0.000000000000e+000 7.500000000000e-002 -33.8897744593
0.000000000000e+000 0.000000000000e+000 7.500000000000e-002 -33.61465848
5.000000000000e-002 0.000000000000e+000 1.000000000000e-001 -34.0519252168
0.000000000000e+000 0.000000000000e+000 1.000000000000e-001 -33.8384717881
5.000000000000e-002 0.000000000000e+000 1.250000000000e-001 -34.1498595069
0.000000000000e+000 0.000000000000e+000 1.250000000000e-001 -33.9644589
5.000000000000e-002 0.000000000000e+000 1.500000000000e-001 -33.7965525623
0.000000000000e+000 0.000000000000e+000 1.500000000000e-001 -33.6271094592
5.000000000000e-002 0.000000000000e+000 1.750000000000e-001 -33.7458104827
0.000000000000e+000 0.000000000000e+000 1.750000000000e-001 -33.5761553101
5.000000000000e-002 0.000000000000e+000 2.000000000000e-001 -33.4566033871
0.000000000000e+000 0.000000000000e+000 2.000000000000e-001 -33.3276170773
5.000000000000e-002 0.000000000000e+000 2.250000000000e-001 -33.3191661694
0.000000000000e+000 0.000000000000e+000 2.250000000000e-001 -33.1291902952
5.000000000000e-002 0.000000000000e+000 2.500000000000e-001 -33.1086799209
0.000000000000e+000 0.000000000000e+000 2.500000000000e-001 -33.0145924802
5.000000000000e-002 0.000000000000e+000 2.750000000000e-001 -33.2898521832
0.000000000000e+000 0.000000000000e+000 2.750000000000e-001 -33.1488666362
5.000000000000e-002 0.000000000000e+000 3.000000000000e-001 -33.4239424161
0.000000000000e+000 0.000000000000e+000 3.000000000000e-001 -33.237144285
5.000000000000e-002 0.000000000000e+000 3.250000000000e-001 -33.5188399029
0.000000000000e+000 0.000000000000e+000 3.250000000000e-001 -33.2982842282
5.000000000000e-002 0.000000000000e+000 3.500000000000e-001 -33.6603584534
0.000000000000e+000 0.000000000000e+000 3.500000000000e-001 -33.6311895314
5.000000000000e-002 0.000000000000e+000 3.750000000000e-001 -33.9119046334
0.000000000000e+000 0.000000000000e+000 3.750000000000e-001 -34.0107357115
5.000000000000e-002 0.000000000000e+000 4.000000000000e-001 -33.68636329
0.000000000000e+000 0.000000000000e+000 4.000000000000e-001 -33.742181389
5.000000000000e-002 0.000000000000e+000 4.250000000000e-001 -33.6436553849
0.000000000000e+000 0.000000000000e+000 4.250000000000e-001 -33.5825152696
5.000000000000e-002 0.000000000000e+000 4.500000000000e-001 -33.8410961376
0.000000000000e+000 0.000000000000e+000 4.500000000000e-001 -33.6689474262
5.000000000000e-002 0.000000000000e+000 4.750000000000e-001 -33.8937911388
0.000000000000e+000 0.000000000000e+000 4.750000000000e-001 -33.7283641056
5.000000000000e-002 0.000000000000e+000 5.000000000000e-001 -33.7942038945
0.000000000000e+000 0.000000000000e+000 5.000000000000e-001 -33.5953923799
5.000000000000e-002 0.000000000000e+000 5.250000000000e-001 -33.9857061033
0.000000000000e+000 0.000000000000e+000 5.250000000000e-001 -33.8424996674
5.000000000000e-002 0.000000000000e+000 5.500000000000e-001 -34.0490887319
0.000000000000e+000 0.000000000000e+000 5.500000000000e-001 -33.9720824317
5.000000000000e-002 0.000000000000e+000 5.750000000000e-001 -33.7199437409
0.000000000000e+000 0.000000000000e+000 5.750000000000e-001 -33.6342856809
5.000000000000e-002 0.000000000000e+000 6.000000000000e-001 -33.8663307611
0.000000000000e+000 0.000000000000e+000 6.000000000000e-001 -33.8028674427
5.000000000000e-002 0.000000000000e+000 6.250000000000e-001 -34.0846858903
0.000000000000e+000 0.000000000000e+000 6.250000000000e-001 -34.0881372505
5.000000000000e-002 0.000000000000e+000 6.500000000000e-001 -34.3111510876
0.000000000000e+000 0.000000000000e+000 6.500000000000e-001 -34.4004402866
5.000000000000e-002 0.000000000000e+000 6.750000000000e-001 -34.0634038533
0.000000000000e+000 0.000000000000e+000 6.750000000000e-001 -34.1848849308
5.000000000000e-002 0.000000000000e+000 7.000000000000e-001 -34.1044365757
0.000000000000e+000 0.000000000000e+000 7.000000000000e-001 -34.2283769631
5.000000000000e-002 0.000000000000e+000 7.250000000000e-001 -33.9315712575
0.000000000000e+000 0.000000000000e+000 7.250000000000e-001 -34.0588085548
5.000000000000e-002 0.000000000000e+000 7.500000000000e-001 -33.9480413639
0.000000000000e+000 0.000000000000e+000 7.500000000000e-001 -34.0936865707
5.000000000000e-002 0.000000000000e+000 7.750000000000e-001 -34.0037386951
0.000000000000e+000 0.000000000000e+000 7.750000000000e-001 -34.2259363782
5.000000000000e-002 0.000000000000e+000 8.000000000000e-001 -34.0483682346
0.000000000000e+000 0.000000000000e+000 8.000000000000e-001 -34.1987392958
5.000000000000e-002 0.000000000000e+000 8.250000000000e-001 -33.8552538759
0.000000000000e+000 0.000000000000e+000 8.250000000000e-001 -34.0206830269
5.000000000000e-002 0.000000000000e+000 8.500000000000e-001 -34.0975751341
0.000000000000e+000 0.000000000000e+000 8.500000000000e-001 -34.3188622792
5.000000000000e-002 0.000000000000e+000 8.750000000000e-001 -34.1048926789
0.000000000000e+000 0.000000000000e+000 8.750000000000e-001 -34.2165342454
5.000000000000e-002 0.000000000000e+000 9.000000000000e-001 -33.7052125389
0.000000000000e+000 0.000000000000e+000 9.000000000000e-001 -33.7759620936
5.000000000000e-002 0.000000000000e+000 9.250000000000e-001 -33.7704840567
0.000000000000e+000 0.000000000000e+000 9.250000000000e-001 -33.8601225833
5.000000000000e-002 0.000000000000e+000 9.500000000000e-001 -34.0295237388
0.000000000000e+000 0.000000000000e+000 9.500000000000e-001 -34.0263006123
5.000000000000e-002 0.000000000000e+000 9.750000000000e-001 -33.9140118978
0.000000000000e+000 0.000000000000e+000 9.750000000000e-001 -33.9507813155
5.000000000000e-002 0.000000000000e+000 1.000000000000e+000 -33.7002240055
0.000000000000e+000 0.000000000000e+000 1.000000000000e+000 -33.7837648603
1.000000000000e-001 0.000000000000e+000 0.000000000000e+000 -33.6318645062
1.000000000000e-001 0.000000000000e+000 2.500000000000e-002 -34.0019794061
1.000000000000e-001 0.000000000000e+000 5.000000000000e-002 -33.731712264
1.000000000000e-001 0.000000000000e+000 7.500000000000e-002 -33.8965194602
1.000000000000e-001 0.000000000000e+000 1.000000000000e-001 -34.1061397622
1.000000000000e-001 0.000000000000e+000 1.250000000000e-001 -34.1857088075
1.000000000000e-001 0.000000000000e+000 1.500000000000e-001 -33.9417824551
1.000000000000e-001 0.000000000000e+000 1.750000000000e-001 -33.8640015502
1.000000000000e-001 0.000000000000e+000 2.000000000000e-001 -33.578480068
1.000000000000e-001 0.000000000000e+000 2.250000000000e-001 -33.4242669902
1.000000000000e-001 0.000000000000e+000 2.500000000000e-001 -33.2171754249
1.000000000000e-001 0.000000000000e+000 2.750000000000e-001 -33.3886474951
1.000000000000e-001 0.000000000000e+000 3.000000000000e-001 -33.5376653368
1.000000000000e-001 0.000000000000e+000 3.250000000000e-001 -33.6457740418
1.000000000000e-001 0.000000000000e+000 3.500000000000e-001 -33.8053787571
1.000000000000e-001 0.000000000000e+000 3.750000000000e-001 -34.0045816158
1.000000000000e-001 0.000000000000e+000 4.000000000000e-001 -33.8299614006
1.000000000000e-001 0.000000000000e+000 4.250000000000e-001 -33.7612796474
1.000000000000e-001 0.000000000000e+000 4.500000000000e-001 -33.9132886184
1.000000000000e-001 0.000000000000e+000 4.750000000000e-001 -33.9781728023
1.000000000000e-001 0.000000000000e+000 5.000000000000e-001 -33.8306347041
1.000000000000e-001 0.000000000000e+000 5.250000000000e-001 -33.9920016533
1.000000000000e-001 0.000000000000e+000 5.500000000000e-001 -34.1426774948
1.000000000000e-001 0.000000000000e+000 5.750000000000e-001 -33.8804723866
1.000000000000e-001 0.000000000000e+000 6.000000000000e-001 -34.0229993871
1.000000000000e-001 0.000000000000e+000 6.250000000000e-001 -34.2026845619
1.000000000000e-001 0.000000000000e+000 6.500000000000e-001 -34.3470807809
1.000000000000e-001 0.000000000000e+000 6.750000000000e-001 -34.0434720446
1.000000000000e-001 0.000000000000e+000 7.000000000000e-001 -34.0701311359
1.000000000000e-001 0.000000000000e+000 7.250000000000e-001 -33.9228803324
1.000000000000e-001 0.000000000000e+000 7.500000000000e-001 -33.9911425467
1.000000000000e-001 0.000000000000e+000 7.750000000000e-001 -33.9847190781
1.000000000000e-001 0.000000000000e+000 8.000000000000e-001 -34.1001071796
1.000000000000e-001 0.000000000000e+000 8.250000000000e-001 -33.9085065573
1.000000000000e-001 0.000000000000e+000 8.500000000000e-001 -34.0995937252
1.000000000000e-001 0.000000000000e+000 8.750000000000e-001 -34.121034593
1.000000000000e-001 0.000000000000e+000 9.000000000000e-001 -33.7427400832
1.000000000000e-001 0.000000000000e+000 9.250000000000e-001 -33.8196898872
1.000000000000e-001 0.000000000000e+000 9.500000000000e-001 -33.9914381685
1.000000000000e-001 0.000000000000e+000 9.750000000000e-001 -33.9645289809
1.000000000000e-001 0.000000000000e+000 1.000000000000e+000 -33.7286835754
1.500000000000e-001 0.000000000000e+000 0.000000000000e+000 -33.7429202051
1.500000000000e-001 0.000000000000e+000 2.500000000000e-002 -34.1971772726
1.500000000000e-001 0.000000000000e+000 5.000000000000e-002 -33.9808618441
1.500000000000e-001 0.000000000000e+000 7.500000000000e-002 -34.1366677253
1.500000000000e-001 0.000000000000e+000 1.000000000000e-001 -34.2301135137
1.500000000000e-001 0.000000000000e+000 1.250000000000e-001 -34.3052868398
1.500000000000e-001 0.000000000000e+000 1.500000000000e-001 -34.0234142896
1.500000000000e-001 0.000000000000e+000 1.750000000000e-001 -33.878827512
1.500000000000e-001 0.000000000000e+000 2.000000000000e-001 -33.5708826375
1.500000000000e-001 0.000000000000e+000 2.250000000000e-001 -33.4561265323
1.500000000000e-001 0.000000000000e+000 2.500000000000e-001 -33.3499019038
1.500000000000e-001 0.000000000000e+000 2.750000000000e-001 -33.6829491997
1.500000000000e-001 0.000000000000e+000 3.000000000000e-001 -33.781907019
1.500000000000e-001 0.000000000000e+000 3.250000000000e-001 -33.8473749553
1.500000000000e-001 0.000000000000e+000 3.500000000000e-001 -34.0659831787
1.500000000000e-001 0.000000000000e+000 3.750000000000e-001 -34.2041691822
1.500000000000e-001 0.000000000000e+000 4.000000000000e-001 -33.9629722401
1.500000000000e-001 0.000000000000e+000 4.250000000000e-001 -33.9182732395
1.500000000000e-001 0.000000000000e+000 4.500000000000e-001 -33.9826246579
1.500000000000e-001 0.000000000000e+000 4.750000000000e-001 -34.0780117938
1.500000000000e-001 0.000000000000e+000 5.000000000000e-001 -33.961409126
1.500000000000e-001 0.000000000000e+000 5.250000000000e-001 -34.1299521424
1.500000000000e-001 0.000000000000e+000 5.500000000000e-001 -34.2925050154
1.500000000000e-001 0.000000000000e+000 5.750000000000e-001 -34.0228747234
1.500000000000e-001 0.000000000000e+000 6.000000000000e-001 -34.0975066814
1.500000000000e-001 0.000000000000e+000 6.250000000000e-001 -34.3268882285
1.500000000000e-001 0.000000000000e+000 6.500000000000e-001 -34.4430372833
1.500000000000e-001 0.000000000000e+000 6.750000000000e-001 -34.0863361714
1.500000000000e-001 0.000000000000e+000 7.000000000000e-001 -34.0663754528
1.500000000000e-001 0.000000000000e+000 7.250000000000e-001 -34.0328342757
1.500000000000e-001 0.000000000000e+000 7.500000000000e-001 -34.1545208483
1.500000000000e-001 0.000000000000e+000 7.750000000000e-001 -34.1835539886
1.500000000000e-001 0.000000000000e+000 8.000000000000e-001 -34.2687040912
1.500000000000e-001 0.000000000000e+000 8.250000000000e-001 -34.0370345925
1.500000000000e-001 0.000000000000e+000 8.500000000000e-001 -34.2909411513
1.500000000000e-001 0.000000000000e+000 8.750000000000e-001 -34.3105552881
1.500000000000e-001 0.000000000000e+000 9.000000000000e-001 -33.9292069158
1.500000000000e-001 0.000000000000e+000 9.250000000000e-001 -34.0049552623
1.500000000000e-001 0.000000000000e+000 9.500000000000e-001 -34.2579039763
1.500000000000e-001 0.000000000000e+000 9.750000000000e-001 -34.201041021
1.500000000000e-001 0.000000000000e+000 1.000000000000e+000 -34.0670658968
2.000000000000e-001 0.000000000000e+000 0.000000000000e+000 -33.9983735391
2.000000000000e-001 0.000000000000e+000 2.500000000000e-002 -34.1586076183
2.000000000000e-001 0.000000000000e+000 5.000000000000e-002 -33.8738019236
2.000000000000e-001 0.000000000000e+000 7.500000000000e-002 -34.0675652523
2.000000000000e-001 0.000000000000e+000 1.000000000000e-001 -34.1658070831
2.000000000000e-001 0.000000000000e+000 1.250000000000e-001 -34.2140673059
2.000000000000e-001 0.000000000000e+000 1.500000000000e-001 -34.0148753021
2.000000000000e-001 0.000000000000e+000 1.750000000000e-001 -33.9598672917
2.000000000000e-001 0.000000000000e+000 2.000000000000e-001 -33.7118322366
2.000000000000e-001 0.000000000000e+000 2.250000000000e-001 -33.6357613945
2.000000000000e-001 0.000000000000e+000 2.500000000000e-001 -33.4949207365
2.000000000000e-001 0.000000000000e+000 2.750000000000e-001 -33.8079185637
2.000000000000e-001 0.000000000000e+000 3.000000000000e-001 -33.8153413344
2.000000000000e-001 0.000000000000e+000 3.250000000000e-001 -33.7453779951
2.000000000000e-001 0.000000000000e+000 3.500000000000e-001 -33.8924846108
2.000000000000e-001 0.000000000000e+000 3.750000000000e-001 -34.1332330333
2.000000000000e-001 0.000000000000e+000 4.000000000000e-001 -33.9395401378
2.000000000000e-001 0.000000000000e+000 4.250000000000e-001 -33.8992924291
2.000000000000e-001 0.000000000000e+000 4.500000000000e-001 -33.9682863365
2.000000000000e-001 0.000000000000e+000 4.750000000000e-001 -33.99880574
2.000000000000e-001 0.000000000000e+000 5.000000000000e-001 -33.9499704475
2.000000000000e-001 0.000000000000e+000 5.250000000000e-001 -34.0709685248
2.000000000000e-001 0.000000000000e+000 5.500000000000e-001 -34.2662081487
2.000000000000e-001 0.000000000000e+000 5.750000000000e-001 -33.9985247113
2.000000000000e-001 0.000000000000e+000 6.000000000000e-001 -34.1230659752
2.000000000000e-001 0.000000000000e+000 6.250000000000e-001 -34.2134719139
2.000000000000e-001 0.000000000000e+000 6.500000000000e-001 -34.2379667616
2.000000000000e-001 0.000000000000e+000 6.750000000000e-001 -33.8335397337
2.000000000000e-001 0.000000000000e+000 7.000000000000e-001 -33.8297800645
2.000000000000e-001 0.000000000000e+000 7.250000000000e-001 -33.7874274386
2.000000000000e-001 0.000000000000e+000 7.500000000000e-001 -33.7947820803
2.000000000000e-001 0.000000000000e+000 7.750000000000e-001 -33.7454072987
2.000000000000e-001 0.000000000000e+000 8.000000000000e-001 -33.8029626442
2.000000000000e-001 0.000000000000e+000 8.250000000000e-001 -33.676061224
2.000000000000e-001 0.000000000000e+000 8.500000000000e-001 -33.9555144241
2.000000000000e-001 0.000000000000e+000 8.750000000000e-001 -33.9897073596
2.000000000000e-001 0.000000000000e+000 9.000000000000e-001 -33.66308866
2.000000000000e-001 0.000000000000e+000 9.250000000000e-001 -33.6857598964
2.000000000000e-001 0.000000000000e+000 9.500000000000e-001 -34.0174544108
2.000000000000e-001 0.000000000000e+000 9.750000000000e-001 -33.9717445504
2.000000000000e-001 0.000000000000e+000 1.000000000000e+000 -33.8278989634
2.500000000000e-001 0.000000000000e+000 0.000000000000e+000 -33.707044604
2.500000000000e-001 0.000000000000e+000 2.500000000000e-002 -34.0019504373
2.500000000000e-001 0.000000000000e+000 5.000000000000e-002 -33.7089436663
2.500000000000e-001 0.000000000000e+000 7.500000000000e-002 -33.9451483271
2.500000000000e-001 0.000000000000e+000 1.000000000000e-001 -34.0765214881
2.500000000000e-001 0.000000000000e+000 1.250000000000e-001 -34.1036706237
2.500000000000e-001 0.000000000000e+000 1.500000000000e-001 -33.9190097283
2.500000000000e-001 0.000000000000e+000 1.750000000000e-001 -33.8841180363
2.500000000000e-001 0.000000000000e+000 2.000000000000e-001 -33.6721615853
2.500000000000e-001 0.000000000000e+000 2.250000000000e-001 -33.6746760758
2.500000000000e-001 0.000000000000e+000 2.500000000000e-001 -33.6132801892
2.500000000000e-001 0.000000000000e+000 2.750000000000e-001 -33.9686784761
2.500000000000e-001 0.000000000000e+000 3.000000000000e-001 -33.9353460212
2.500000000000e-001 0.000000000000e+000 3.250000000000e-001 -33.8496093248
2.500000000000e-001 0.000000000000e+000 3.500000000000e-001 -33.9653834451
2.500000000000e-001 0.000000000000e+000 3.750000000000e-001 -34.1679045959
2.500000000000e-001 0.000000000000e+000 4.000000000000e-001 -33.9447908611
2.500000000000e-001 0.000000000000e+000 4.250000000000e-001 -33.8176904815
2.500000000000e-001 0.000000000000e+000 4.500000000000e-001 -33.8571979534
2.500000000000e-001 0.000000000000e+000 4.750000000000e-001 -33.8222862031
2.500000000000e-001 0.000000000000e+000 5.000000000000e-001 -33.8182623357
2.500000000000e-001 0.000000000000e+000 5.250000000000e-001 -33.8765552165
2.500000000000e-001 0.000000000000e+000 5.500000000000e-001 -34.0935454395
2.500000000000e-001 0.000000000000e+000 5.750000000000e-001 -33.8463907825
2.500000000000e-001 0.000000000000e+000 6.000000000000e-001 -33.9307697665
2.500000000000e-001 0.000000000000e+000 6.250000000000e-001 -34.0695551337
2.500000000000e-001 0.000000000000e+000 6.500000000000e-001 -34.1476606237
2.500000000000e-001 0.000000000000e+000 6.750000000000e-001 -33.7281664554
2.500000000000e-001 0.000000000000e+000 7.000000000000e-001 -33.6447526631
2.500000000000e-001 0.000000000000e+000 7.250000000000e-001 -33.595347894
2.500000000000e-001 0.000000000000e+000 7.500000000000e-001 -33.6198720257
2.500000000000e-001 0.000000000000e+000 7.750000000000e-001 -33.5312272274
2.500000000000e-001 0.000000000000e+000 8.000000000000e-001 -33.5735215646
2.500000000000e-001 0.000000000000e+000 8.250000000000e-001 -33.4236726392
2.500000000000e-001 0.000000000000e+000 8.500000000000e-001 -33.7081800656
2.500000000000e-001 0.000000000000e+000 8.750000000000e-001 -33.8343695709
2.500000000000e-001 0.000000000000e+000 9.000000000000e-001 -33.4064188149
2.500000000000e-001 0.000000000000e+000 9.250000000000e-001 -33.4529014861
2.500000000000e-001 0.000000000000e+000 9.500000000000e-001 -33.7992813941
2.500000000000e-001 0.000000000000e+000 9.750000000000e-001 -33.8372759063
2.500000000000e-001 0.000000000000e+000 1.000000000000e+000 -33.7652168258
3.000000000000e-001 0.000000000000e+000 0.000000000000e+000 -33.5435638127
3.000000000000e-001 0.000000000000e+000 2.500000000000e-002 -34.2275118675
3.000000000000e-001 0.000000000000e+000 5.000000000000e-002 -33.8693790595
3.000000000000e-001 0.000000000000e+000 7.500000000000e-002 -34.124569671
3.000000000000e-001 0.000000000000e+000 1.000000000000e-001 -34.2458345338
3.000000000000e-001 0.000000000000e+000 1.250000000000e-001 -34.3085013774
3.000000000000e-001 0.000000000000e+000 1.500000000000e-001 -34.0502887027
3.000000000000e-001 0.000000000000e+000 1.750000000000e-001 -33.9729344223
3.000000000000e-001 0.000000000000e+000 2.000000000000e-001 -33.7576709208
3.000000000000e-001 0.000000000000e+000 2.250000000000e-001 -33.8297968314
3.000000000000e-001 0.000000000000e+000 2.500000000000e-001 -33.8306474539
3.000000000000e-001 0.000000000000e+000 2.750000000000e-001 -34.1470778552
3.000000000000e-001 0.000000000000e+000 3.000000000000e-001 -34.1278991714
3.000000000000e-001 0.000000000000e+000 3.250000000000e-001 -33.9561709463
3.000000000000e-001 0.000000000000e+000 3.500000000000e-001 -34.0376612196
3.000000000000e-001 0.000000000000e+000 3.750000000000e-001 -34.2228750718
3.000000000000e-001 0.000000000000e+000 4.000000000000e-001 -34.0840798045
3.000000000000e-001 0.000000000000e+000 4.250000000000e-001 -34.036430786
3.000000000000e-001 0.000000000000e+000 4.500000000000e-001 -34.0578898985
3.000000000000e-001 0.000000000000e+000 4.750000000000e-001 -34.0836733219
3.000000000000e-001 0.000000000000e+000 5.000000000000e-001 -34.0933194041
3.000000000000e-001 0.000000000000e+000 5.250000000000e-001 -34.2002410701
3.000000000000e-001 0.000000000000e+000 5.500000000000e-001 -34.2657501276
3.000000000000e-001 0.000000000000e+000 5.750000000000e-001 -34.0809118042
3.000000000000e-001 0.000000000000e+000 6.000000000000e-001 -34.1538078226
3.000000000000e-001 0.000000000000e+000 6.250000000000e-001 -34.3268672045
3.000000000000e-001 0.000000000000e+000 6.500000000000e-001 -34.4685864857
3.000000000000e-001 0.000000000000e+000 6.750000000000e-001 -34.1137628278
3.000000000000e-001 0.000000000000e+000 7.000000000000e-001 -34.0039817452
3.000000000000e-001 0.000000000000e+000 7.250000000000e-001 -33.9041491513
3.000000000000e-001 0.000000000000e+000 7.500000000000e-001 -33.9257824608
3.000000000000e-001 0.000000000000e+000 7.750000000000e-001 -33.8777031339
3.000000000000e-001 0.000000000000e+000 8.000000000000e-001 -33.8164546163
3.000000000000e-001 0.000000000000e+000 8.250000000000e-001 -33.6414798819
3.000000000000e-001 0.000000000000e+000 8.500000000000e-001 -33.8819140113
3.000000000000e-001 0.000000000000e+000 8.750000000000e-001 -33.9854157788
3.000000000000e-001 0.000000000000e+000 9.000000000000e-001 -33.5559308555
3.000000000000e-001 0.000000000000e+000 9.250000000000e-001 -33.4986981618
3.000000000000e-001 0.000000000000e+000 9.500000000000e-001 -33.7878183331
3.000000000000e-001 0.000000000000e+000 9.750000000000e-001 -33.8115590659
3.000000000000e-001 0.000000000000e+000 1.000000000000e+000 -33.763649938
3.500000000000e-001 0.000000000000e+000 0.000000000000e+000 -33.5069693048
3.500000000000e-001 0.000000000000e+000 2.500000000000e-002 -34.2730542332
3.500000000000e-001 0.000000000000e+000 5.000000000000e-002 -33.9337342924
3.500000000000e-001 0.000000000000e+000 7.500000000000e-002 -34.1324843842
3.500000000000e-001 0.000000000000e+000 1.000000000000e-001 -34.2714847472
3.500000000000e-001 0.000000000000e+000 1.250000000000e-001 -34.3303545497
3.500000000000e-001 0.000000000000e+000 1.500000000000e-001 -34.1650865574
3.500000000000e-001 0.000000000000e+000 1.750000000000e-001 -34.0548961068
3.500000000000e-001 0.000000000000e+000 2.000000000000e-001 -33.7785877521
3.500000000000e-001 0.000000000000e+000 2.250000000000e-001 -33.7904786556
3.500000000000e-001 0.000000000000e+000 2.500000000000e-001 -33.8436293151
3.500000000000e-001 0.000000000000e+000 2.750000000000e-001 -34.2200932393
3.500000000000e-001 0.000000000000e+000 3.000000000000e-001 -34.2526830108
3.500000000000e-001 0.000000000000e+000 3.250000000000e-001 -34.0460460485
3.500000000000e-001 0.000000000000e+000 3.500000000000e-001 -34.1893097613
3.500000000000e-001 0.000000000000e+000 3.750000000000e-001 -34.4358794485
3.500000000000e-001 0.000000000000e+000 4.000000000000e-001 -34.2847498438
3.500000000000e-001 0.000000000000e+000 4.250000000000e-001 -34.2660897371
3.500000000000e-001 0.000000000000e+000 4.500000000000e-001 -34.2027996906
3.500000000000e-001 0.000000000000e+000 4.750000000000e-001 -34.2606333922
3.500000000000e-001 0.000000000000e+000 5.000000000000e-001 -34.3674108885
3.500000000000e-001 0.000000000000e+000 5.250000000000e-001 -34.3690236313
3.500000000000e-001 0.000000000000e+000 5.500000000000e-001 -34.4256571062
3.500000000000e-001 0.000000000000e+000 5.750000000000e-001 -34.2830659636
3.500000000000e-001 0.000000000000e+000 6.000000000000e-001 -34.3838846037
3.500000000000e-001 0.000000000000e+000 6.250000000000e-001 -34.5676906742
3.500000000000e-001 0.000000000000e+000 6.500000000000e-001 -34.6561761177
3.500000000000e-001 0.000000000000e+000 6.750000000000e-001 -34.3224289861
3.500000000000e-001 0.000000000000e+000 7.000000000000e-001 -34.3158473687
3.500000000000e-001 0.000000000000e+000 7.250000000000e-001 -34.1031609817
3.500000000000e-001 0.000000000000e+000 7.500000000000e-001 -34.074338831
3.500000000000e-001 0.000000000000e+000 7.750000000000e-001 -33.9854293976
3.500000000000e-001 0.000000000000e+000 8.000000000000e-001 -33.9397469365
3.500000000000e-001 0.000000000000e+000 8.250000000000e-001 -33.7770010917
3.500000000000e-001 0.000000000000e+000 8.500000000000e-001 -34.0281075128
3.500000000000e-001 0.000000000000e+000 8.750000000000e-001 -34.2452889219
3.500000000000e-001 0.000000000000e+000 9.000000000000e-001 -33.8782648951
3.500000000000e-001 0.000000000000e+000 9.250000000000e-001 -33.7967118556
3.500000000000e-001 0.000000000000e+000 9.500000000000e-001 -34.1322397299
3.500000000000e-001 0.000000000000e+000 9.750000000000e-001 -34.1278282317
3.500000000000e-001 0.000000000000e+000 1.000000000000e+000 -34.1181552091
4.000000000000e-001 0.000000000000e+000 0.000000000000e+000 -33.7961258773
4.000000000000e-001 0.000000000000e+000 2.500000000000e-002 -33.9469679205
4.000000000000e-001 0.000000000000e+000 5.000000000000e-002 -33.5544911847
4.000000000000e-001 0.000000000000e+000 7.500000000000e-002 -33.7865354511
4.000000000000e-001 0.000000000000e+000 1.000000000000e-001 -34.0361313108
4.000000000000e-001 0.000000000000e+000 1.250000000000e-001 -34.1330905325
4.000000000000e-001 0.000000000000e+000 1.500000000000e-001 -34.0185663984
4.000000000000e-001 0.000000000000e+000 1.750000000000e-001 -33.9809152739
4.000000000000e-001 0.000000000000e+000 2.000000000000e-001 -33.702297741
4.000000000000e-001 0.000000000000e+000 2.250000000000e-001 -33.7198586617
4.000000000000e-001 0.000000000000e+000 2.500000000000e-001 -33.7501591748
4.000000000000e-001 0.000000000000e+000 2.750000000000e-001 -34.0105106888
4.000000000000e-001 0.000000000000e+000 3.000000000000e-001 -34.0337174906
4.000000000000e-001 0.000000000000e+000 3.250000000000e-001 -33.7611592404
4.000000000000e-001 0.000000000000e+000 3.500000000000e-001 -33.976421957
4.000000000000e-001 0.000000000000e+000 3.750000000000e-001 -34.270914122
4.000000000000e-001 0.000000000000e+000 4.000000000000e-001 -34.1508128656
4.000000000000e-001 0.000000000000e+000 4.250000000000e-001 -34.0470105406
4.000000000000e-001 0.000000000000e+000 4.500000000000e-001 -34.0640244814
4.000000000000e-001 0.000000000000e+000 4.750000000000e-001 -34.0797787133
4.000000000000e-001 0.000000000000e+000 5.000000000000e-001 -34.1739529493
4.000000000000e-001 0.000000000000e+000 5.250000000000e-001 -34.3094985795
4.000000000000e-001 0.000000000000e+000 5.500000000000e-001 -34.3910187778
4.000000000000e-001 0.000000000000e+000 5.750000000000e-001 -34.2055580686
4.000000000000e-001 0.000000000000e+000 6.000000000000e-001 -34.3407316037
4.000000000000e-001 0.000000000000e+000 6.250000000000e-001 -34.4676477795
4.000000000000e-001 0.000000000000e+000 6.500000000000e-001 -34.6232455
4.000000000000e-001 0.000000000000e+000 6.750000000000e-001 -34.3373182579
4.000000000000e-001 0.000000000000e+000 7.000000000000e-001 -34.2348161614
4.000000000000e-001 0.000000000000e+000 7.250000000000e-001 -34.0456625128
4.000000000000e-001 0.000000000000e+000 7.500000000000e-001 -33.9921894424
4.000000000000e-001 0.000000000000e+000 7.750000000000e-001 -33.9596149466
4.000000000000e-001 0.000000000000e+000 8.000000000000e-001 -33.9785085498
4.000000000000e-001 0.000000000000e+000 8.250000000000e-001 -33.8300053791
4.000000000000e-001 0.000000000000e+000 8.500000000000e-001 -34.1347339041
4.000000000000e-001 0.000000000000e+000 8.750000000000e-001 -34.3634117688
4.000000000000e-001 0.000000000000e+000 9.000000000000e-001 -33.9854669637
4.000000000000e-001 0.000000000000e+000 9.250000000000e-001 -33.9867242759
4.000000000000e-001 0.000000000000e+000 9.500000000000e-001 -34.3371963315
4.000000000000e-001 0.000000000000e+000 9.750000000000e-001 -34.2481433537
4.000000000000e-001 0.000000000000e+000 1.000000000000e+000 -34.2883075616
4.500000000000e-001 0.000000000000e+000 0.000000000000e+000 -33.9335817954
4.500000000000e-001 0.000000000000e+000 2.500000000000e-002 -34.1762832178
4.500000000000e-001 0.000000000000e+000 5.000000000000e-002 -33.7433079976
4.500000000000e-001 0.000000000000e+000 7.500000000000e-002 -33.8829181709
4.500000000000e-001 0.000000000000e+000 1.000000000000e-001 -34.1706657677
4.500000000000e-001 0.000000000000e+000 1.250000000000e-001 -34.2244842831
4.500000000000e-001 0.000000000000e+000 1.500000000000e-001 -34.0165907944
4.500000000000e-001 0.000000000000e+000 1.750000000000e-001 -33.9321278908
4.500000000000e-001 0.000000000000e+000 2.000000000000e-001 -33.6486696965
4.500000000000e-001 0.000000000000e+000 2.250000000000e-001 -33.7084967376
4.500000000000e-001 0.000000000000e+000 2.500000000000e-001 -33.7782767019
4.500000000000e-001 0.000000000000e+000 2.750000000000e-001 -34.0510230021
4.500000000000e-001 0.000000000000e+000 3.000000000000e-001 -34.1196322897
4.500000000000e-001 0.000000000000e+000 3.250000000000e-001 -33.9324842015
4.500000000000e-001 0.000000000000e+000 3.500000000000e-001 -34.1539886464
4.500000000000e-001 0.000000000000e+000 3.750000000000e-001 -34.5669609466
4.500000000000e-001 0.000000000000e+000 4.000000000000e-001 -34.4869904987
4.500000000000e-001 0.000000000000e+000 4.250000000000e-001 -34.4244387343
4.500000000000e-001 0.000000000000e+000 4.500000000000e-001 -34.3917340586
4.500000000000e-001 0.000000000000e+000 4.750000000000e-001 -34.2940648155
4.500000000000e-001 0.000000000000e+000 5.000000000000e-001 -34.396082923
4.500000000000e-001 0.000000000000e+000 5.250000000000e-001 -34.5539103689
4.500000000000e-001 0.000000000000e+000 5.500000000000e-001 -34.612951185
4.500000000000e-001 0.000000000000e+000 5.750000000000e-001 -34.5504136077
4.500000000000e-001 0.000000000000e+000 6.000000000000e-001 -34.7006037935
4.500000000000e-001 0.000000000000e+000 6.250000000000e-001 -34.7621702464
4.500000000000e-001 0.000000000000e+000 6.500000000000e-001 -34.8617703922
4.500000000000e-001 0.000000000000e+000 6.750000000000e-001 -34.5784949469
4.500000000000e-001 0.000000000000e+000 7.000000000000e-001 -34.4314984622