 TITLE = "Profiles along polylines"
 VARIABLES = "DIST" "VELOCITY_X2" "VELOCITY_Y2" 
 ZONE T="TIME=0.000000000000e+00"
0.000000000000e+00 0.000000000000e+00 0.000000000000e+00 
2.500000000000e-02 0.000000000000e+00 0.000000000000e+00 
5.000000000000e-02 0.000000000000e+00 0.000000000000e+00 
7.500000000000e-02 0.000000000000e+00 0.000000000000e+00 
1.000000000000e-01 0.000000000000e+00 0.000000000000e+00 
1.250000000000e-01 0.000000000000e+00 0.000000000000e+00 
1.500000000000e-01 0.000000000000e+00 0.000000000000e+00 
1.750000000000e-01 0.000000000000e+00 0.000000000000e+00 
2.000000000000e-01 0.000000000000e+00 0.000000000000e+00 
2.250000000000e-01 0.000000000000e+00 0.000000000000e+00 
2.500000000000e-01 0.000000000000e+00 0.000000000000e+00 
2.750000000000e-01 0.000000000000e+00 0.000000000000e+00 
3.000000000000e-01 0.000000000000e+00 0.000000000000e+00 
3.250000000000e-01 0.000000000000e+00 0.000000000000e+00 
3.500000000000e-01 0.000000000000e+00 0.000000000000e+00 
3.750000000000e-01 0.000000000000e+00 0.000000000000e+00 
4.000000000000e-01 0.000000000000e+00 0.000000000000e+00 
4.250000000000e-01 0.000000000000e+00 0.000000000000e+00 
4.500000000000e-01 0.000000000000e+00 0.000000000000e+00 
4.750000000000e-01 0.000000000000e+00 0.000000000000e+00 
5.000000000000e-01 0.000000000000e+00 0.000000000000e+00 
5.250000000000e-01 0.000000000000e+00 0.000000000000e+00 
5.500000000000e-01 0.000000000000e+00 0.000000000000e+00 
5.750000000000e-01 0.000000000000e+00 0.000000000000e+00 
6.000000000000e-01 0.000000000000e+00 0.000000000000e+00 
 TITLE = "Profiles along polylines"
 VARIABLES = "DIST" "VELOCITY_X2" "VELOCITY_Y2" 
 ZONE T="TIME=5.000000000000e+01"
0.000000000000e+00 4.004807732051e-10 -4.289389454667e-13 
2.500000000000e-02 3.493741938516e-10 -7.022369542887e-13 
5.000000000000e-02 2.888932590006e-10 -9.469871172149e-13 
7.500000000000e-02 2.798112318880e-10 -7.889004346774e-13 
1.000000000000e-01 2.392499502685e-10 -5.872562001378e-13 
1.250000000000e-01 1.682706135481e-10 -4.556205281994e-13 
1.500000000000e-01 1.427605676281e-10 -4.806662252435e-13 
1.750000000000e-01 1.568989387602e-10 -7.427417295582e-13 
2.000000000000e-01 1.314152962875e-10 -9.489545533257e-13 
2.250000000000e-01 3.211601260752e-11 -7.794111915911e-13 
2.500000000000e-01 -4.052413190766e-11 -2.688729388256e-13 
2.750000000000e-01 -5.083605761364e-11 3.581547306342e-13 
3.000000000000e-01 -5.214795320640e-11 8.075765641773e-13 
3.250000000000e-01 -2.830889744063e-11 9.782812280624e-13 
3.500000000000e-01 -3.600684867595e-12 1.051232030914e-12 
3.750000000000e-01 2.291150064583e-12 1.179769281385e-12 
4.000000000000e-01 4.401535364704e-11 1.442805983188e-12 
4.250000000000e-01 9.022003319247e-11 1.569223677785e-12 
4.500000000000e-01 9.138027330703e-11 1.021069263138e-12 
4.750000000000e-01 1.004773901503e-10 -1.851108775996e-13 
5.000000000000e-01 1.093826941943e-10 -1.388007317031e-12 
5.250000000000e-01 8.569943391038e-11 -2.114370323269e-12 
5.500000000000e-01 9.130537816189e-11 -3.256453053809e-12 
5.750000000000e-01 1.520954850515e-10 -7.852705321430e-12 
6.000000000000e-01 2.232986553299e-10 4.085746451998e-09 
 ZONE T="TIME=1.000000000000e+02"
0.000000000000e+00 1.996416724745e-10 -1.063073861129e-13 
2.500000000000e-02 1.718895347252e-10 -1.759270762673e-13 
5.000000000000e-02 1.409672258610e-10 -2.524888445724e-13 
7.500000000000e-02 1.366596281289e-10 -2.434058645776e-13 
1.000000000000e-01 1.097309746693e-10 -2.141713688157e-13 
1.250000000000e-01 6.374361785201e-11 -1.910407325629e-13 
1.500000000000e-01 4.333845376152e-11 -1.984310689325e-13 
1.750000000000e-01 4.942902502706e-11 -2.451542619750e-13 
2.000000000000e-01 3.785527069577e-11 -2.756016108266e-13 
2.250000000000e-01 -1.708610863706e-11 -2.245208623817e-13 
2.500000000000e-01 -5.854224520547e-11 -8.140751212044e-14 
2.750000000000e-01 -6.457895887619e-11 1.018121536678e-13 
3.000000000000e-01 -6.811270640205e-11 2.427730886996e-13 
3.250000000000e-01 -5.680340662562e-11 3.138703976849e-13 
3.500000000000e-01 -4.455003801034e-11 3.467100108118e-13 
3.750000000000e-01 -4.463662354707e-11 3.626185497629e-13 
4.000000000000e-01 -2.490558079035e-11 3.721420684110e-13 
4.250000000000e-01 -9.227411780026e-12 3.153248558230e-13 
4.500000000000e-01 -2.675213667557e-11 1.018787741311e-13 
4.750000000000e-01 -2.914148659512e-11 -2.346648763261e-13 
5.000000000000e-01 -7.438732102739e-12 -6.069657505641e-13 
5.250000000000e-01 5.492854298662e-12 -1.059001439856e-12 
5.500000000000e-01 2.625116370409e-11 -2.000600528781e-12 
5.750000000000e-01 7.488699274304e-11 -4.653893741424e-12 
6.000000000000e-01 1.330579074619e-10 2.780863286551e-09 
 ZONE T="TIME=1.500000000000e+02"
0.000000000000e+00 7.019712626003e-11 -5.262142489994e-14 
2.500000000000e-02 5.435779462825e-11 -8.614834767772e-14 
5.000000000000e-02 4.249560368856e-11 -1.243290126836e-13 
7.500000000000e-02 4.613789001323e-11 -1.257081488304e-13 
1.000000000000e-01 2.704944551778e-11 -1.188938579935e-13 
1.250000000000e-01 -7.119675993134e-12 -1.107171361088e-13 
1.500000000000e-01 -2.437759519245e-11 -1.107358391266e-13 
1.750000000000e-01 -1.966844885301e-11 -1.238283198172e-13 
2.000000000000e-01 -2.181220521179e-11 -1.314517456148e-13 
2.250000000000e-01 -5.638591288287e-11 -1.076077131698e-13 
2.500000000000e-01 -8.514805413800e-11 -4.357259096498e-14 
2.750000000000e-01 -9.086373727930e-11 3.871127173722e-14 
3.000000000000e-01 -9.945397725285e-11 1.034056065678e-13 
3.250000000000e-01 -9.704138210093e-11 1.376650370901e-13 
3.500000000000e-01 -9.227120017918e-11 1.500057180629e-13 
3.750000000000e-01 -9.612435418399e-11 1.477478978496e-13 
4.000000000000e-01 -8.542670155141e-11 1.381711129654e-13 
4.250000000000e-01 -8.770786045801e-11 8.984728802653e-14 
4.500000000000e-01 -1.244788446876e-10 -4.326810592890e-14 
4.750000000000e-01 -1.369656100536e-10 -2.426511511500e-13 
5.000000000000e-01 -1.021574668329e-10 -4.789606363445e-13 
5.250000000000e-01 -6.215827519596e-11 -8.173767320333e-13 
5.500000000000e-01 -3.189798592478e-11 -1.561166664114e-12 
5.750000000000e-01 7.483711706860e-12 -3.591155471608e-12 
6.000000000000e-01 5.939123886736e-11 2.404517289021e-09 
 ZONE T="TIME=2.000000000000e+02"
0.000000000000e+00 -4.340165877335e-11 -3.112049517759e-14 
2.500000000000e-02 -4.975766904328e-11 -5.034510849780e-14 
5.000000000000e-02 -4.544375917703e-11 -7.279383975777e-14 
7.500000000000e-02 -3.426359908232e-11 -7.650192679220e-14 
1.000000000000e-01 -4.698440428775e-11 -7.659052563351e-14 
1.250000000000e-01 -7.183139521073e-11 -7.332326856925e-14 
1.500000000000e-01 -8.628755542227e-11 -7.105835409782e-14 
1.750000000000e-01 -8.160673200455e-11 -7.467040902912e-14 
2.000000000000e-01 -7.500497838003e-11 -7.814359577627e-14 
2.250000000000e-01 -9.337098016327e-11 -6.675112267987e-14 
2.500000000000e-01 -1.121817281486e-10 -3.232207288496e-14 
2.750000000000e-01 -1.175033191492e-10 1.224275214931e-14 
3.000000000000e-01 -1.307096826623e-10 4.663193822671e-14 
3.250000000000e-01 -1.355735143540e-10 6.353010465359e-14 
3.500000000000e-01 -1.365722168560e-10 6.562949764005e-14 
3.750000000000e-01 -1.432938554310e-10 5.796157838837e-14 
4.000000000000e-01 -1.388556029857e-10 4.634249877808e-14 
4.250000000000e-01 -1.549747902665e-10 8.293033500845e-15 
4.500000000000e-01 -2.079662197854e-10 -8.611343619156e-14 
4.750000000000e-01 -2.289514007731e-10 -2.240243031481e-13 
5.000000000000e-01 -1.831026185207e-10 -3.946169719677e-13 
5.250000000000e-01 -1.210688406511e-10 -6.594325928334e-13 
5.500000000000e-01 -8.386220098730e-11 -1.256904032841e-12 
5.750000000000e-01 -5.325733556309e-11 -2.873049985278e-12 
6.000000000000e-01 -7.126334150974e-12 2.133707963567e-09 
 ZONE T="TIME=2.500000000000e+02"
0.000000000000e+00 -1.332258109925e-10 -2.085682265280e-14 
2.500000000000e-02 -1.324415833994e-10 -3.334955499386e-14 
5.000000000000e-02 -1.156075702016e-10 -4.829635848047e-14 
7.500000000000e-02 -9.841554589210e-11 -5.264684321495e-14 
1.000000000000e-01 -1.064489041387e-10 -5.546159458054e-14 
1.250000000000e-01 -1.244469033738e-10 -5.440373400054e-14 
1.500000000000e-01 -1.368306598203e-10 -5.163121612075e-14 
1.750000000000e-01 -1.318667326766e-10 -5.223437928179e-14 
2.000000000000e-01 -1.181886508095e-10 -5.518977139509e-14 
2.250000000000e-01 -1.242860517141e-10 -4.982856503051e-14 
2.500000000000e-01 -1.355893722384e-10 -2.826867382187e-14 
2.750000000000e-01 -1.404442689687e-10 3.266541578246e-17 
3.000000000000e-01 -1.571955048930e-10 2.103457655000e-14 
3.250000000000e-01 -1.673926492311e-10 2.976210373203e-14 
3.500000000000e-01 -1.723887307277e-10 2.712804540390e-14 
3.750000000000e-01 -1.809400855241e-10 1.790966202067e-14 
4.000000000000e-01 -1.805793061146e-10 7.177314738393e-15 
4.250000000000e-01 -2.065935663938e-10 -2.338471796011e-14 
4.500000000000e-01 -2.717409544496e-10 -9.603198833701e-14 
4.750000000000e-01 -2.991379262502e-10 -2.006766363216e-13 
5.000000000000e-01 -2.450226826820e-10 -3.335924979322e-13 
5.250000000000e-01 -1.666807363929e-10 -5.495636367928e-13 
5.500000000000e-01 -1.248552449957e-10 -1.044654419470e-12 
5.750000000000e-01 -1.017700384998e-10 -2.380360680762e-12 
6.000000000000e-01 -6.073874010604e-11 1.934652924111e-09 
 ZONE T="TIME=3.000000000000e+02"
0.000000000000e+00 -2.016584905777e-10 -1.470008812722e-14 
2.500000000000e-02 -1.954756394711e-10 -2.323799242314e-14 
5.000000000000e-02 -1.692164774131e-10 -3.378223595279e-14 
7.500000000000e-02 -1.475749955495e-10 -3.833074256724e-14 
1.000000000000e-01 -1.521097746060e-10 -4.242941198550e-14 
1.250000000000e-01 -1.649073295970e-10 -4.261667566035e-14 
1.500000000000e-01 -1.757256465681e-10 -3.988973964605e-14 
1.750000000000e-01 -1.705579856616e-10 -3.920144994138e-14 
2.000000000000e-01 -1.514699063975e-10 -4.198243120344e-14 
2.250000000000e-01 -1.481683616907e-10 -3.987550944850e-14 
2.500000000000e-01 -1.536480075511e-10 -2.539912973277e-14 
2.750000000000e-01 -1.579935728277e-10 -6.015510136967e-15 
3.000000000000e-01 -1.772356744467e-10 7.749964463773e-15 
3.250000000000e-01 -1.912349246305e-10 1.223068336805e-14 
3.500000000000e-01 -1.989829363312e-10 7.508407823533e-15 
3.750000000000e-01 -2.086393697203e-10 -1.855457624484e-15 
4.000000000000e-01 -2.110868428734e-10 -1.142550972728e-14 
4.250000000000e-01 -2.441327875282e-10 -3.654842685321e-14 
4.500000000000e-01 -3.178593055659e-10 -9.424481375769e-14 
4.750000000000e-01 -3.499067479736e-10 -1.760106080813e-13 
5.000000000000e-01 -2.901105479061e-10 -2.819471287157e-13 
5.250000000000e-01 -2.003002672021e-10 -4.607080761362e-13 
5.500000000000e-01 -1.557037383190e-10 -8.759674840641e-13 
5.750000000000e-01 -1.390705103975e-10 -1.993985389513e-12 
6.000000000000e-01 -1.027745512542e-10 1.765830467004e-09 
 ZONE T="TIME=3.500000000000e+02"
0.000000000000e+00 -2.511739361708e-10 -1.083568606133e-14 
2.500000000000e-02 -2.410421468514e-10 -1.694264368159e-14 
5.000000000000e-02 -2.080110352447e-10 -2.473405045784e-14 
7.500000000000e-02 -1.832760590351e-10 -2.915923310659e-14 
1.000000000000e-01 -1.852314182101e-10 -3.370752518663e-14 
1.250000000000e-01 -1.941099635363e-10 -3.454226125470e-14 
1.500000000000e-01 -2.037247597331e-10 -3.202730558313e-14 
1.750000000000e-01 -1.984672084560e-10 -3.078719469986e-14 
2.000000000000e-01 -1.754863500416e-10 -3.339200380721e-14 
2.250000000000e-01 -1.652049777527e-10 -3.302388828271e-14 
2.500000000000e-01 -1.662817033198e-10 -2.276337463065e-14 
2.750000000000e-01 -1.701545460491e-10 -8.727394398613e-15 
3.000000000000e-01 -1.910319958437e-10 8.119664861389e-16 
3.250000000000e-01 -2.076490162206e-10 3.006499351883e-15 
3.500000000000e-01 -2.172598157232e-10 -2.477307475620e-15 
3.750000000000e-01 -2.275520552910e-10 -1.135879026004e-14 
4.000000000000e-01 -2.319603459943e-10 -1.973506832622e-14 
4.250000000000e-01 -2.698594302894e-10 -4.066420523979e-14 
4.500000000000e-01 -3.492967472996e-10 -8.750422399360e-14 
4.750000000000e-01 -3.845950568230e-10 -1.528377181221e-13 
5.000000000000e-01 -3.212606156479e-10 -2.387399583762e-13 
5.250000000000e-01 -2.239070497979e-10 -3.882303310500e-13 
5.500000000000e-01 -1.779651404406e-10 -7.393556616631e-13 
5.750000000000e-01 -1.667980388126e-10 -1.683371209767e-12 
6.000000000000e-01 -1.348509155809e-10 1.619611669345e-09 
 ZONE T="TIME=4.000000000000e+02"
0.000000000000e+00 -2.848806836885e-10 -8.415290468546e-15 
2.500000000000e-02 -2.719920706966e-10 -1.303642786030e-14 
5.000000000000e-02 -2.343714086988e-10 -1.909131445219e-14 
7.500000000000e-02 -2.076392829774e-10 -2.320870781694e-14 
1.000000000000e-01 -2.077382038394e-10 -2.772819704512e-14 
1.250000000000e-01 -2.137249799929e-10 -2.883732021531e-14 
1.500000000000e-01 -2.224046185685e-10 -2.657399335994e-14 
1.750000000000e-01 -2.171399574726e-10 -2.517714788811e-14 
2.000000000000e-01 -1.915414853908e-10 -2.761385897907e-14 
2.250000000000e-01 -1.763023111633e-10 -2.811464366684e-14 
2.500000000000e-01 -1.741795993763e-10 -2.038458847750e-14 
2.750000000000e-01 -1.776590568825e-10 -9.607467175965e-15 
3.000000000000e-01 -1.995243072935e-10 -2.566788487017e-15 
3.250000000000e-01 -2.178655363447e-10 -1.586021994176e-15 
3.500000000000e-01 -2.287075224207e-10 -7.168673155337e-15 
3.750000000000e-01 -2.393476200829e-10 -1.531567303657e-14 
4.000000000000e-01 -2.451282504874e-10 -2.254726987910e-14 
4.250000000000e-01 -2.862387081267e-10 -4.017209731825e-14 
4.500000000000e-01 -3.692035188704e-10 -7.905404649557e-14 
4.750000000000e-01 -4.066824657936e-10 -1.325935152417e-13 
5.000000000000e-01 -3.414614331486e-10 -2.036681919278e-13 
5.250000000000e-01 -2.395917264646e-10 -3.301830505287e-13 
5.500000000000e-01 -1.933384295224e-10 -6.299061367834e-13 
5.750000000000e-01 -1.867250922136e-10 -1.435318959886e-12 
6.000000000000e-01 -1.586751763832e-10 1.494081547703e-09 
 ZONE T="TIME=4.500000000000e+02"
0.000000000000e+00 -3.034961554248e-10 -7.463907399501e-15 
2.500000000000e-02 -2.890906747002e-10 -1.153010977468e-14 
5.000000000000e-02 -2.489776742813e-10 -1.684743068720e-14 
7.500000000000e-02 -2.211840869166e-10 -2.055559498105e-14 
1.000000000000e-01 -2.202179380607e-10 -2.474796213765e-14 
1.250000000000e-01 -2.245145555967e-10 -2.584943258637e-14 
1.500000000000e-01 -2.326027577485e-10 -2.382054438841e-14 
1.750000000000e-01 -2.273212570312e-10 -2.268137521723e-14 
2.000000000000e-01 -2.002872313357e-10 -2.521080765579e-14 
2.250000000000e-01 -1.822688843088e-10 -2.596507098094e-14 
2.500000000000e-01 -1.783214228230e-10 -1.915523707771e-14 
2.750000000000e-01 -1.815489747863e-10 -9.599456655656e-15 
3.000000000000e-01 -2.039103159010e-10 -3.480785139927e-15 
3.250000000000e-01 -2.231621369195e-10 -2.942813385388e-15 
3.500000000000e-01 -2.346365499817e-10 -8.369826155394e-15 
3.750000000000e-01 -2.454006737529e-10 -1.577658963845e-14 
4.000000000000e-01 -2.518971198504e-10 -2.181313957302e-14 
4.250000000000e-01 -2.946941368393e-10 -3.695522663100e-14 
4.500000000000e-01 -3.794629090519e-10 -7.130014459469e-14 
4.750000000000e-01 -4.182203170354e-10 -1.188583214016e-13 
5.000000000000e-01 -3.523513958093e-10 -1.818614182623e-13 
5.250000000000e-01 -2.484619535020e-10 -2.936519587174e-13 
5.500000000000e-01 -2.026270540884e-10 -5.588758865898e-13 
5.750000000000e-01 -1.994111273508e-10 -1.273745803237e-12 
6.000000000000e-01 -1.744028824601e-10 1.408152523543e-09 
 ZONE T="TIME=5.000000000000e+02"
0.000000000000e+00 -3.173494394312e-10 -5.807323618793e-15 
2.500000000000e-02 -3.015604796331e-10 -8.892820791787e-15 
5.000000000000e-02 -2.595440481731e-10 -1.308834362767e-14 
7.500000000000e-02 -2.312094811847e-10 -1.654596673275e-14 
1.000000000000e-01 -2.291774817603e-10 -2.054766735486e-14 
1.250000000000e-01 -2.316515270181e-10 -2.173759843727e-14 
1.500000000000e-01 -2.390640294727e-10 -1.992795904186e-14 
1.750000000000e-01 -2.339769480703e-10 -1.861766232170e-14 
2.000000000000e-01 -2.059663314088e-10 -2.071277519365e-14 
2.250000000000e-01 -1.852845549755e-10 -2.176146737518e-14 
2.500000000000e-01 -1.794577241413e-10 -1.656940114300e-14 
2.750000000000e-01 -1.824068150350e-10 -9.142986969825e-15 
3.000000000000e-01 -2.049421092967e-10 -4.526498011592e-15 
3.250000000000e-01 -2.249177147821e-10 -4.446638868403e-15 
3.500000000000e-01 -2.370011370422e-10 -9.464989557128e-15 
3.750000000000e-01 -2.478691720771e-10 -1.612294984214e-14 
4.000000000000e-01 -2.552743756260e-10 -2.158345628236e-14 
4.250000000000e-01 -2.994656879020e-10 -3.472437504491e-14 
4.500000000000e-01 -3.850250656980e-10 -6.329613066268e-14 
4.750000000000e-01 -4.246260398282e-10 -1.017481408269e-13 
5.000000000000e-01 -3.589359546415e-10 -1.532498108772e-13 
5.250000000000e-01 -2.541717852060e-10 -2.478650204251e-13 
5.500000000000e-01 -2.091530730221e-10 -4.748355374385e-13 
5.750000000000e-01 -2.092235728487e-10 -1.084611159777e-12 
6.000000000000e-01 -1.874868551502e-10 1.296366032931e-09 
 ZONE T="TIME=5.500000000000e+02"
0.000000000000e+00 -3.238076498487e-10 -4.790103250814e-15 
2.500000000000e-02 -3.072173980144e-10 -7.291191235114e-15 
5.000000000000e-02 -2.642972717349e-10 -1.075008647069e-14 
7.500000000000e-02 -2.358565117810e-10 -1.383863537280e-14 
1.000000000000e-01 -2.330807864073e-10 -1.748318629773e-14 
1.250000000000e-01 -2.342353911749e-10 -1.862518714492e-14 
1.500000000000e-01 -2.410764529380e-10 -1.702019681592e-14 
1.750000000000e-01 -2.361661730031e-10 -1.576040431606e-14 
2.000000000000e-01 -2.077707089435e-10 -1.759763347530e-14 
2.250000000000e-01 -1.854662783356e-10 -1.872721329719e-14 
2.500000000000e-01 -1.784167349643e-10 -1.454067118721e-14 
2.750000000000e-01 -1.811789096970e-10 -8.478289907007e-15 
3.000000000000e-01 -2.036639320778e-10 -4.802826831728e-15 
3.250000000000e-01 -2.240075026629e-10 -4.974194737791e-15 
3.500000000000e-01 -2.364579810580e-10 -9.575267123240e-15 
3.750000000000e-01 -2.473475037351e-10 -1.550240465259e-14 
4.000000000000e-01 -2.553831359714e-10 -2.024281409002e-14 
4.250000000000e-01 -3.002524187439e-10 -3.151107862076e-14 
4.500000000000e-01 -3.857348196176e-10 -5.571783385630e-14 
4.750000000000e-01 -4.257209501884e-10 -8.784258127655e-14 
5.000000000000e-01 -3.608370966385e-10 -1.310720141839e-13 
5.250000000000e-01 -2.564397462687e-10 -2.119245459830e-13 
5.500000000000e-01 -2.125964643460e-10 -4.071980461268e-13 
5.750000000000e-01 -2.153955945437e-10 -9.316002505928e-13 
6.000000000000e-01 -1.965369885019e-10 1.200999197184e-09 
 ZONE T="TIME=6.000000000000e+02"
0.000000000000e+00 -3.242137614412e-10 -4.193610863726e-15 
2.500000000000e-02 -3.073156647462e-10 -6.370605128829e-15 
5.000000000000e-02 -2.643252569737e-10 -9.384602998474e-15 
7.500000000000e-02 -2.361438233953e-10 -1.212402123813e-14 
1.000000000000e-01 -2.329285100520e-10 -1.539138994848e-14 
1.250000000000e-01 -2.332314387827e-10 -1.643614900693e-14 
1.500000000000e-01 -2.396254641271e-10 -1.501563541894e-14 
1.750000000000e-01 -2.348790961487e-10 -1.391075505248e-14 
2.000000000000e-01 -2.065707840313e-10 -1.560976637069e-14 
2.250000000000e-01 -1.835154143505e-10 -1.670327637255e-14 
2.500000000000e-01 -1.757953281885e-10 -1.307082231806e-14 
2.750000000000e-01 -1.784363510104e-10 -7.783571950835e-15 
3.000000000000e-01 -2.006865047951e-10 -4.613631884840e-15 
3.250000000000e-01 -2.210900263881e-10 -4.864946364507e-15 
3.500000000000e-01 -2.336870191297e-10 -9.059046524288e-15 
3.750000000000e-01 -2.445221371780e-10 -1.432492871851e-14 
4.000000000000e-01 -2.529340632623e-10 -1.836276961445e-14 
4.250000000000e-01 -2.978691371501e-10 -2.807730226188e-14 
4.500000000000e-01 -3.825655688022e-10 -4.912415718240e-14 
4.750000000000e-01 -4.225426964759e-10 -7.693620777041e-14 
5.000000000000e-01 -3.589280871196e-10 -1.143256021470e-13 
5.250000000000e-01 -2.558676147727e-10 -1.846311974860e-13 
5.500000000000e-01 -2.134250516550e-10 -3.550024783778e-13 
5.750000000000e-01 -2.183684625441e-10 -8.130959453806e-13 
6.000000000000e-01 -2.019298215183e-10 1.122358812445e-09 
 ZONE T="TIME=6.500000000000e+02"
0.000000000000e+00 -3.213893517032e-10 -3.634556823362e-15 
2.500000000000e-02 -3.043994465024e-10 -5.508596504770e-15 
5.000000000000e-02 -2.617689656873e-10 -8.121318648617e-15 
7.500000000000e-02 -2.340836185873e-10 -1.056643784385e-14 
1.000000000000e-01 -2.305515499562e-10 -1.350131307073e-14 
1.250000000000e-01 -2.301686138500e-10 -1.445875191744e-14 
1.500000000000e-01 -2.361555755602e-10 -1.320197854219e-14 
1.750000000000e-01 -2.316089327291e-10 -1.220386635049e-14 
2.000000000000e-01 -2.036544901002e-10 -1.372870456667e-14 
2.250000000000e-01 -1.802095707545e-10 -1.476746254363e-14 
2.500000000000e-01 -1.720254186789e-10 -1.163989451788e-14 
2.750000000000e-01 -1.745654406281e-10 -7.059712793361e-15 
3.000000000000e-01 -1.964483945977e-10 -4.336791214600e-15 
3.250000000000e-01 -2.167545048946e-10 -4.619880636412e-15 
3.500000000000e-01 -2.294038690598e-10 -8.396104945337e-15 
3.750000000000e-01 -2.401476740941e-10 -1.306177317157e-14 
4.000000000000e-01 -2.488649399792e-10 -1.655243726247e-14 
4.250000000000e-01 -2.935603724342e-10 -2.498872197362e-14 
4.500000000000e-01 -3.769890357845e-10 -4.321823429534e-14 
4.750000000000e-01 -4.166957307577e-10 -6.705056539832e-14 
5.000000000000e-01 -3.546565659291e-10 -9.910522813579e-14 
5.250000000000e-01 -2.535020852082e-10 -1.600709908898e-13 
5.500000000000e-01 -2.125700193084e-10 -3.085091560723e-13 
5.750000000000e-01 -2.193110503165e-10 -7.076928188086e-13 
6.000000000000e-01 -2.050639785804e-10 1.046775625476e-09 
 ZONE T="TIME=7.000000000000e+02"
0.000000000000e+00 -3.162066527928e-10 -3.146935290557e-15 
2.500000000000e-02 -2.992920849643e-10 -4.758651367755e-15 
5.000000000000e-02 -2.573337170984e-10 -7.020692524263e-15 
7.500000000000e-02 -2.303000252868e-10 -9.196414336517e-15 
1.000000000000e-01 -2.265441054186e-10 -1.182223751049e-14 
1.250000000000e-01 -2.256115162769e-10 -1.269317345159e-14 
1.500000000000e-01 -2.312218637415e-10 -1.158229954476e-14 
1.750000000000e-01 -2.268879603272e-10 -1.067720068672e-14 
2.000000000000e-01 -1.994793187471e-10 -1.203005637016e-14 
2.250000000000e-01 -1.759348392274e-10 -1.300164654360e-14 
2.500000000000e-01 -1.674604007083e-10 -1.031652344445e-14 
2.750000000000e-01 -1.699191321505e-10 -6.360293843831e-15 
3.000000000000e-01 -1.913448677822e-10 -4.025261472644e-15 
3.250000000000e-01 -2.114352127383e-10 -4.318503418351e-15 
3.500000000000e-01 -2.240606629561e-10 -7.697523775554e-15 
3.750000000000e-01 -2.346809343049e-10 -1.182101057539e-14 
4.000000000000e-01 -2.436285988437e-10 -1.484538241270e-14 
4.250000000000e-01 -2.878418342008e-10 -2.217299101462e-14 
4.500000000000e-01 -3.696524217456e-10 -3.793187991806e-14 
4.750000000000e-01 -4.088868239245e-10 -5.828782381965e-14 
5.000000000000e-01 -3.486268990643e-10 -8.568371908509e-14 
5.250000000000e-01 -2.497883698150e-10 -1.384504200747e-13 
5.500000000000e-01 -2.104298515468e-10 -2.675696599552e-13 
5.750000000000e-01 -2.186727042253e-10 -6.147924785448e-13 
6.000000000000e-01 -2.064029750079e-10 9.753912339837e-10 
 ZONE T="TIME=7.500000000000e+02"
0.000000000000e+00 -3.086462678405e-10 -2.818535024332e-15 
2.500000000000e-02 -2.920157510220e-10 -4.262149379740e-15 
5.000000000000e-02 -2.510568922696e-10 -6.282927560097e-15 
7.500000000000e-02 -2.247997981793e-10 -8.219311583520e-15 
1.000000000000e-01 -2.209562000685e-10 -1.056411563341e-14 
1.250000000000e-01 -2.196944920949e-10 -1.134742352822e-14 
1.500000000000e-01 -2.249928317137e-10 -1.036335846881e-14 
1.750000000000e-01 -2.208533413976e-10 -9.574695991648e-15 
2.000000000000e-01 -1.941693386440e-10 -1.081353239108e-14 
2.250000000000e-01 -1.709041578759e-10 -1.170079222423e-14 
2.500000000000e-01 -1.623879431667e-10 -9.301334365785e-15 
2.750000000000e-01 -1.647934026717e-10 -5.758858095592e-15 
3.000000000000e-01 -1.856939250837e-10 -3.666151561942e-15 
3.250000000000e-01 -2.054348768247e-10 -3.934478746361e-15 
3.500000000000e-01 -2.179308782654e-10 -6.968383526460e-15 
3.750000000000e-01 -2.283861151113e-10 -1.062138396207e-14 
4.000000000000e-01 -2.374259827073e-10 -1.320853339785e-14 
4.250000000000e-01 -2.808802388053e-10 -1.958582624546e-14 
4.500000000000e-01 -3.607874977399e-10 -3.343296018081e-14 
4.750000000000e-01 -3.993650123910e-10 -5.124582740098e-14 
5.000000000000e-01 -3.410197887437e-10 -7.515162438651e-14 
5.250000000000e-01 -2.448534929751e-10 -1.213634808907e-13 
5.500000000000e-01 -2.070979668332e-10 -2.347396514948e-13 
5.750000000000e-01 -2.164872642683e-10 -5.399806567851e-13 
6.000000000000e-01 -2.058846277079e-10 9.144009700052e-10 
 ZONE T="TIME=8.000000000000e+02"
0.000000000000e+00 -2.998780718853e-10 -2.541997134948e-15 
2.500000000000e-02 -2.836310162251e-10 -3.845743777207e-15 
5.000000000000e-02 -2.438335807981e-10 -5.666951678298e-15 
7.500000000000e-02 -2.184202101804e-10 -7.401577946019e-15 
1.000000000000e-01 -2.145565415473e-10 -9.504400564895e-15 
1.250000000000e-01 -2.130737041042e-10 -1.021081007534e-14 
1.500000000000e-01 -2.180945064616e-10 -9.335977684278e-15 
1.750000000000e-01 -2.141451992048e-10 -8.646432495159e-15 
2.000000000000e-01 -1.882763072349e-10 -9.781743419354e-15 
2.250000000000e-01 -1.654710812835e-10 -1.058684089817e-14 
2.500000000000e-01 -1.570291216516e-10 -8.418829167356e-15 
2.750000000000e-01 -1.593909882882e-10 -5.214206329675e-15 
3.000000000000e-01 -1.797235226684e-10 -3.312664272658e-15 
3.250000000000e-01 -1.990431332599e-10 -3.543174200285e-15 
3.500000000000e-01 -2.113555102334e-10 -6.263543706909e-15 
3.750000000000e-01 -2.216248324470e-10 -9.504845892274e-15 
4.000000000000e-01 -2.306934615787e-10 -1.172635072478e-14 
4.250000000000e-01 -2.732450659561e-10 -1.730981105097e-14 
4.500000000000e-01 -3.510815826445e-10 -2.954538914770e-14 
4.750000000000e-01 -3.888854454684e-10 -4.521515032431e-14 
5.000000000000e-01 -3.325119992082e-10 -6.617861576111e-14 
5.250000000000e-01 -2.391886712598e-10 -1.068442619508e-13 
5.500000000000e-01 -2.030101919924e-10 -2.068555449199e-13 
5.750000000000e-01 -2.132866337247e-10 -4.763883531687e-13 
6.000000000000e-01 -2.041260709344e-10 8.589804876249e-10 
 ZONE T="TIME=8.500000000000e+02"
0.000000000000e+00 -2.909229484661e-10 -2.257829451962e-15 
2.500000000000e-02 -2.750649261101e-10 -3.413595971310e-15 
5.000000000000e-02 -2.364448383904e-10 -5.032248290614e-15 
7.500000000000e-02 -2.118846979733e-10 -6.587623415482e-15 
1.000000000000e-01 -2.080024861098e-10 -8.475501843365e-15 
1.250000000000e-01 -2.063027486748e-10 -9.114700434914e-15 
1.500000000000e-01 -2.110461824333e-10 -8.336094167042e-15 
1.750000000000e-01 -2.072890154750e-10 -7.716232211109e-15 
2.000000000000e-01 -1.822493512348e-10 -8.734046873016e-15 
2.250000000000e-01 -1.599176400390e-10 -9.467599298785e-15 
2.500000000000e-01 -1.515560018191e-10 -7.544311964292e-15 
2.750000000000e-01 -1.538720251416e-10 -4.692426193204e-15 
3.000000000000e-01 -1.736200931452e-10 -2.996148734839e-15 
3.250000000000e-01 -1.925036204192e-10 -3.196645657444e-15 
3.500000000000e-01 -2.046250963369e-10 -5.622534620546e-15 
3.750000000000e-01 -2.147049247540e-10 -8.493696800022e-15 
4.000000000000e-01 -2.237991360509e-10 -1.042165154675e-14 
4.250000000000e-01 -2.654165745717e-10 -1.532024702932e-14 
4.500000000000e-01 -3.411170535526e-10 -2.605460664463e-14 
4.750000000000e-01 -3.780912036111e-10 -3.966804574914e-14 
5.000000000000e-01 -3.236862711475e-10 -5.785646066049e-14 
5.250000000000e-01 -2.332284397202e-10 -9.346760406059e-14 
5.500000000000e-01 -1.985705632929e-10 -1.813852468769e-13 
5.750000000000e-01 -2.095848758804e-10 -4.183661484847e-13 
6.000000000000e-01 -2.017403172783e-10 8.047695950822e-10 
 ZONE T="TIME=9.000000000000e+02"
0.000000000000e+00 -2.815522615374e-10 -2.037537697418e-15 
2.500000000000e-02 -2.661362369263e-10 -3.081377228302e-15 
5.000000000000e-02 -2.287498728808e-10 -4.540155776219e-15 
7.500000000000e-02 -2.050422583897e-10 -5.934678059739e-15 
1.000000000000e-01 -2.011819414285e-10 -7.629415069027e-15 
1.250000000000e-01 -1.993427202715e-10 -8.205570066131e-15 
1.500000000000e-01 -2.038343250751e-10 -7.510841238383e-15 
1.750000000000e-01 -2.002474141829e-10 -6.963637803079e-15 
2.000000000000e-01 -1.760595408940e-10 -7.890515140042e-15 
2.250000000000e-01 -1.543098667212e-10 -8.554409664515e-15 
2.500000000000e-01 -1.461085383282e-10 -6.817478038386e-15 
2.750000000000e-01 -1.483868656285e-10 -4.238315803960e-15 
3.000000000000e-01 -1.675456273034e-10 -2.696013362405e-15 
3.250000000000e-01 -1.859592747361e-10 -2.863426996412e-15 
3.500000000000e-01 -1.978558976836e-10 -5.033977556222e-15 
3.750000000000e-01 -2.077333665546e-10 -7.581826391814e-15 
4.000000000000e-01 -2.167954386694e-10 -9.239612880115e-15 
4.250000000000e-01 -2.574024251692e-10 -1.353549549076e-14 
4.500000000000e-01 -3.309257004647e-10 -2.302938129835e-14 
4.750000000000e-01 -3.670174633570e-10 -3.501154212931e-14 
5.000000000000e-01 -3.145523218628e-10 -5.097187112506e-14 
5.250000000000e-01 -2.269857346435e-10 -8.234861061399e-14 
5.500000000000e-01 -1.937908189812e-10 -1.600073058661e-13 
5.750000000000e-01 -2.053575311186e-10 -3.695146362017e-13 
6.000000000000e-01 -1.986435494726e-10 7.564448323361e-10 
 ZONE T="TIME=9.500000000000e+02"
0.000000000000e+00 -2.722890898478e-10 -1.825377816679e-15 
2.500000000000e-02 -2.573108773752e-10 -2.759642809870e-15 
5.000000000000e-02 -2.211429041524e-10 -4.065444287585e-15 
7.500000000000e-02 -1.982765499905e-10 -5.316263731753e-15 
1.000000000000e-01 -1.944428285702e-10 -6.838014569006e-15 
1.250000000000e-01 -1.924742566833e-10 -7.357535176030e-15 
1.500000000000e-01 -1.967227571192e-10 -6.736853952360e-15 
1.750000000000e-01 -1.933033066481e-10 -6.246811735809e-15 
2.000000000000e-01 -1.699535743262e-10 -7.082024979948e-15 
2.250000000000e-01 -1.487789383157e-10 -7.683966742952e-15 
2.500000000000e-01 -1.407351340944e-10 -6.128320673198e-15 
2.750000000000e-01 -1.429701118923e-10 -3.812931211052e-15 
3.000000000000e-01 -1.615366154096e-10 -2.422103331894e-15 