 TITLE = "Profiles along polylines"
 VARIABLES = "DIST" "VELOCITY_X2" "VELOCITY_Y2" 
 ZONE T="TIME=0.000000000000e+00"
0.000000000000e+00 0.000000000000e+00 0.000000000000e+00 
2.500000000000e-02 0.000000000000e+00 0.000000000000e+00 
5.000000000000e-02 0.000000000000e+00 0.000000000000e+00 
7.500000000000e-02 0.000000000000e+00 0.000000000000e+00 
1.000000000000e-01 0.000000000000e+00 0.000000000000e+00 
1.250000000000e-01 0.000000000000e+00 0.000000000000e+00 
1.500000000000e-01 0.000000000000e+00 0.000000000000e+00 
1.750000000000e-01 0.000000000000e+00 0.000000000000e+00 
2.000000000000e-01 0.000000000000e+00 0.000000000000e+00 
2.250000000000e-01 0.000000000000e+00 0.000000000000e+00 
2.500000000000e-01 0.000000000000e+00 0.000000000000e+00 
2.750000000000e-01 0.000000000000e+00 0.000000000000e+00 
3.000000000000e-01 0.000000000000e+00 0.000000000000e+00 
3.250000000000e-01 0.000000000000e+00 0.000000000000e+00 
3.500000000000e-01 0.000000000000e+00 0.000000000000e+00 
3.750000000000e-01 0.000000000000e+00 0.000000000000e+00 
4.000000000000e-01 0.000000000000e+00 0.000000000000e+00 
4.250000000000e-01 0.000000000000e+00 0.000000000000e+00 
4.500000000000e-01 0.000000000000e+00 0.000000000000e+00 
4.750000000000e-01 0.000000000000e+00 0.000000000000e+00 
5.000000000000e-01 0.000000000000e+00 0.000000000000e+00 
5.250000000000e-01 0.000000000000e+00 0.000000000000e+00 
5.500000000000e-01 0.000000000000e+00 0.000000000000e+00 
5.750000000000e-01 0.000000000000e+00 0.000000000000e+00 
6.000000000000e-01 0.000000000000e+00 0.000000000000e+00 
 TITLE = "Profiles along polylines"
 VARIABLES = "DIST" "VELOCITY_X2" "VELOCITY_Y2" 
 ZONE T="TIME=5.000000000000e+01"
0.000000000000e+00 -8.443753580260e-11 -1.803010866313e-13 
2.500000000000e-02 -5.767331203775e-11 -2.393336792288e-13 
5.000000000000e-02 -2.007027782228e-11 -2.070813595650e-13 
7.500000000000e-02 -9.424436396947e-12 -1.016811156523e-13 
1.000000000000e-01 1.643966406579e-11 -1.581970030624e-13 
1.250000000000e-01 6.332027995194e-11 -2.842343130372e-13 
1.500000000000e-01 8.501747720062e-11 -3.730719620654e-13 
1.750000000000e-01 7.049218876826e-11 -3.221332406404e-13 
2.000000000000e-01 5.815555167271e-11 -1.157927398302e-13 
2.250000000000e-01 6.038095829401e-11 5.711076179015e-14 
2.500000000000e-01 5.062725057392e-11 1.986659799219e-13 
2.750000000000e-01 6.788602420440e-11 4.240639082703e-13 
3.000000000000e-01 1.329075597946e-10 6.354028801922e-13 
3.250000000000e-01 2.060298240616e-10 6.573050445317e-13 
3.500000000000e-01 2.544896328756e-10 4.529593210957e-13 
3.750000000000e-01 2.593916385117e-10 1.015585122203e-13 
4.000000000000e-01 2.281501367006e-10 -4.053232965767e-13 
4.250000000000e-01 1.713737272022e-10 -7.872076844152e-13 
4.500000000000e-01 1.286013429607e-10 -7.074971193914e-13 
4.750000000000e-01 1.653624929127e-10 -6.155798554925e-13 
5.000000000000e-01 2.449762453686e-10 -9.603900494218e-13 
5.250000000000e-01 2.707675275002e-10 -1.710059096058e-12 
5.500000000000e-01 2.341762982239e-10 -3.230691868639e-12 
5.750000000000e-01 1.961679829954e-10 -6.975058172123e-12 
6.000000000000e-01 1.967546861231e-10 3.407294681303e-09 
 ZONE T="TIME=1.000000000000e+02"
0.000000000000e+00 -1.433487015917e-11 -4.168916811574e-14 
2.500000000000e-02 1.469083562064e-12 -5.169527398178e-14 
5.000000000000e-02 2.384850159920e-11 -4.056079756935e-14 
7.500000000000e-02 3.260361141233e-11 -2.841861732944e-14 
1.000000000000e-01 5.179120747703e-11 -7.574135476422e-14 
1.250000000000e-01 8.368015880780e-11 -1.418733498480e-13 
1.500000000000e-01 9.867589112458e-11 -1.645644283756e-13 
1.750000000000e-01 8.686566866128e-11 -1.176800243258e-13 
2.000000000000e-01 7.798141044905e-11 -3.258569689607e-14 
2.250000000000e-01 8.104093485520e-11 3.920157514875e-14 
2.500000000000e-01 7.297037757585e-11 9.898791018249e-14 
2.750000000000e-01 8.292603140691e-11 1.533754582243e-13 
3.000000000000e-01 1.298084885143e-10 1.782767227318e-13 
3.250000000000e-01 1.873201163939e-10 1.539254159515e-13 
3.500000000000e-01 2.281611007974e-10 7.584319310127e-14 
3.750000000000e-01 2.370549190677e-10 -5.811771053541e-14 
4.000000000000e-01 2.214385706681e-10 -2.542967820424e-13 
4.250000000000e-01 1.785352194822e-10 -4.380218460339e-13 
4.500000000000e-01 1.473453698771e-10 -5.280131054195e-13 
4.750000000000e-01 1.869511139777e-10 -6.146598623611e-13 
5.000000000000e-01 2.524660615848e-10 -8.431825094396e-13 
5.250000000000e-01 2.701928476165e-10 -1.347092114650e-12 
5.500000000000e-01 2.411621346285e-10 -2.459053254571e-12 
5.750000000000e-01 2.093857399613e-10 -5.166081073868e-12 
6.000000000000e-01 2.064306875083e-10 2.662783465421e-09 
 ZONE T="TIME=1.500000000000e+02"
0.000000000000e+00 8.358479371740e-11 -1.492707694482e-14 
2.500000000000e-02 9.013064481460e-11 -1.651891122783e-14 
5.000000000000e-02 9.855410014786e-11 -9.567074707795e-15 
7.500000000000e-02 1.050507046752e-10 -9.048890685920e-15 
1.000000000000e-01 1.209705535089e-10 -3.939936622043e-14 
1.250000000000e-01 1.452006091150e-10 -7.665582078528e-14 
1.500000000000e-01 1.578688463449e-10 -8.531642689213e-14 
1.750000000000e-01 1.449228611601e-10 -5.744085988837e-14 
2.000000000000e-01 1.351546583340e-10 -1.611225167644e-14 
2.250000000000e-01 1.396666490315e-10 1.867123708132e-14 
2.500000000000e-01 1.326576317806e-10 4.500546892087e-14 
2.750000000000e-01 1.396496020570e-10 5.663752308851e-14 
3.000000000000e-01 1.817540131717e-10 4.853655334379e-14 
3.250000000000e-01 2.392919687162e-10 2.338358542603e-14 
3.500000000000e-01 2.824490784364e-10 -2.105613826145e-14 
3.750000000000e-01 2.952397402460e-10 -9.534418573900e-14 
4.000000000000e-01 2.878171856394e-10 -2.068277001006e-13 
4.250000000000e-01 2.418434719188e-10 -3.243145839385e-13 
4.500000000000e-01 2.060291139190e-10 -4.161170703882e-13 
4.750000000000e-01 2.483740878278e-10 -5.136233766465e-13 
5.000000000000e-01 3.056541876041e-10 -6.897624585813e-13 
5.250000000000e-01 3.128559208218e-10 -1.064013548367e-12 
5.500000000000e-01 2.819694659562e-10 -1.902296777499e-12 
5.750000000000e-01 2.478006044652e-10 -3.957977543179e-12 
6.000000000000e-01 2.378892350669e-10 2.284251422323e-09 
 ZONE T="TIME=2.000000000000e+02"
0.000000000000e+00 1.725625247042e-10 -8.237404548357e-15 
2.500000000000e-02 1.717280449716e-10 -8.697556730928e-15 
5.000000000000e-02 1.686944487364e-10 -4.377809606890e-15 
7.500000000000e-02 1.730635310924e-10 -5.302840642625e-15 
1.000000000000e-01 1.866799356962e-10 -2.521023613968e-14 
1.250000000000e-01 2.056560765575e-10 -4.834881252267e-14 
1.500000000000e-01 2.168620321497e-10 -5.305163245950e-14 
1.750000000000e-01 2.018168902678e-10 -3.699740696562e-14 
2.000000000000e-01 1.902418822745e-10 -1.440852628759e-14 
2.250000000000e-01 1.958026370796e-10 5.643697481867e-15 
2.500000000000e-01 1.889473504168e-10 1.937400840584e-14 
2.750000000000e-01 1.935509359036e-10 1.927324935403e-14 
3.000000000000e-01 2.334474224928e-10 5.869696122030e-15 
3.250000000000e-01 2.929472279898e-10 -1.531531118662e-14 
3.500000000000e-01 3.389154882024e-10 -4.667373388767e-14 
3.750000000000e-01 3.542002533680e-10 -9.789055541100e-14 
4.000000000000e-01 3.516944033957e-10 -1.752993250320e-13 
4.250000000000e-01 3.004958125453e-10 -2.613120896258e-13 
4.500000000000e-01 2.585208941809e-10 -3.393125591612e-13 
4.750000000000e-01 3.031150771912e-10 -4.257955541641e-13 
5.000000000000e-01 3.550128982155e-10 -5.678443358532e-13 
5.250000000000e-01 3.538101751768e-10 -8.624015805640e-13 
5.500000000000e-01 3.203933926771e-10 -1.524875227171e-12 
5.750000000000e-01 2.835228814512e-10 -3.160031231733e-12 
6.000000000000e-01 2.682425903011e-10 2.027572188075e-09 
 ZONE T="TIME=2.500000000000e+02"
0.000000000000e+00 2.410467729897e-10 -5.909866874622e-15 
2.500000000000e-02 2.347246073009e-10 -6.442958626941e-15 
5.000000000000e-02 2.230814904842e-10 -3.925300005930e-15 
7.500000000000e-02 2.257199472833e-10 -5.036271543206e-15 
1.000000000000e-01 2.375610515670e-10 -1.900098720196e-14 
1.250000000000e-01 2.526458974913e-10 -3.466640766262e-14 
1.500000000000e-01 2.626626363232e-10 -3.783679393883e-14 
1.750000000000e-01 2.456626313034e-10 -2.831545893779e-14 
2.000000000000e-01 2.323578116523e-10 -1.482762510252e-14 
2.250000000000e-01 2.384353904204e-10 -1.654369647634e-15 
2.500000000000e-01 2.313182458544e-10 6.676529199960e-15 
2.750000000000e-01 2.338726189040e-10 3.082672986915e-15 
3.000000000000e-01 2.720408201099e-10 -1.008240683553e-14 
3.250000000000e-01 3.327754048490e-10 -2.750708720915e-14 
3.500000000000e-01 3.804657299270e-10 -5.168351181253e-14 
3.750000000000e-01 3.971246992885e-10 -9.065434416927e-14 
4.000000000000e-01 3.977092577955e-10 -1.496341293590e-13 
4.250000000000e-01 3.424779023851e-10 -2.169236970143e-13 
4.500000000000e-01 2.958822798924e-10 -2.823372128144e-13 
4.750000000000e-01 3.419385388576e-10 -3.566025822608e-13 
5.000000000000e-01 3.900474199824e-10 -4.738977252000e-13 
5.250000000000e-01 3.830293041629e-10 -7.136420243723e-13 
5.500000000000e-01 3.480849812030e-10 -1.254187702126e-12 
5.750000000000e-01 3.096623425159e-10 -2.595101922061e-12 
6.000000000000e-01 2.909995593116e-10 1.832517721763e-09 
 ZONE T="TIME=3.000000000000e+02"
0.000000000000e+00 2.883364782803e-10 -4.714395559961e-15 
2.500000000000e-02 2.781498999558e-10 -5.403093009609e-15 
5.000000000000e-02 2.604306374358e-10 -4.034881174653e-15 
7.500000000000e-02 2.617419345223e-10 -5.168659807629e-15 
1.000000000000e-01 2.721410402964e-10 -1.555760317577e-14 
1.250000000000e-01 2.842429896655e-10 -2.688331719189e-14 
1.500000000000e-01 2.932156191355e-10 -2.926982296351e-14 
1.750000000000e-01 2.748178091881e-10 -2.338912447886e-14 
2.000000000000e-01 2.602383648643e-10 -1.477256939084e-14 
2.250000000000e-01 2.664658157095e-10 -5.357397831498e-15 
2.500000000000e-01 2.590489910744e-10 2.588614561325e-16 
2.750000000000e-01 2.599637223741e-10 -4.279465424565e-15 
3.000000000000e-01 2.963974745393e-10 -1.607622588274e-14 
3.250000000000e-01 3.572142621449e-10 -3.046648858181e-14 
3.500000000000e-01 4.054555171296e-10 -4.984669042652e-14 
3.750000000000e-01 4.227618006846e-10 -8.088294674381e-14 
4.000000000000e-01 4.253960792807e-10 -1.278785454240e-13 
4.250000000000e-01 3.679520403672e-10 -1.823437049684e-13 
4.500000000000e-01 3.187034417833e-10 -2.375208663466e-13 
4.750000000000e-01 3.653950233785e-10 -3.010440017271e-13 
5.000000000000e-01 4.105391603781e-10 -3.991261334392e-13 
5.250000000000e-01 3.997792911308e-10 -5.978374704825e-13 
5.500000000000e-01 3.644265108427e-10 -1.046932985881e-12 
5.750000000000e-01 3.256476605630e-10 -2.165342256159e-12 
6.000000000000e-01 3.051855599308e-10 1.671696523063e-09 
 ZONE T="TIME=3.500000000000e+02"
0.000000000000e+00 3.171958548073e-10 -4.031487378854e-15 
2.500000000000e-02 3.045133636058e-10 -4.826990409947e-15 
5.000000000000e-02 2.828731862666e-10 -4.122734112096e-15 
7.500000000000e-02 2.832303745322e-10 -5.182638150095e-15 
1.000000000000e-01 2.924914316077e-10 -1.336245362779e-14 
1.250000000000e-01 3.023948091306e-10 -2.211512534860e-14 
1.500000000000e-01 3.104999558765e-10 -2.409390678516e-14 
1.750000000000e-01 2.912942924463e-10 -2.024693215769e-14 
2.000000000000e-01 2.759411803722e-10 -1.426499810509e-14 
2.250000000000e-01 2.821126062539e-10 -7.010655272142e-15 
2.500000000000e-01 2.745010172823e-10 -2.847127432390e-15 
2.750000000000e-01 2.742408808394e-10 -7.348591475096e-15 
3.000000000000e-01 3.090255976068e-10 -1.761935112612e-14 
3.250000000000e-01 3.690969347154e-10 -2.970519938574e-14 
3.500000000000e-01 4.170657862964e-10 -4.584942738341e-14 
3.750000000000e-01 4.345636794041e-10 -7.163674145907e-14 
4.000000000000e-01 4.385282808606e-10 -1.106870719509e-13 
4.250000000000e-01 3.803724112713e-10 -1.562791522804e-13 
4.500000000000e-01 3.300572515596e-10 -2.034195387468e-13 
4.750000000000e-01 3.767414128175e-10 -2.580988794228e-13 
5.000000000000e-01 4.195433560911e-10 -3.415656956522e-13 
5.250000000000e-01 4.066179707143e-10 -5.097583774281e-13 
5.500000000000e-01 3.716533382576e-10 -8.905508113680e-13 
5.750000000000e-01 3.333564001840e-10 -1.841600029330e-12 
6.000000000000e-01 3.122219250032e-10 1.540649393379e-09 
 ZONE T="TIME=4.000000000000e+02"
0.000000000000e+00 3.319950164266e-10 -3.457259825995e-15 
2.500000000000e-02 3.177957116306e-10 -4.263758593795e-15 
5.000000000000e-02 2.937980444969e-10 -3.950347934564e-15 
7.500000000000e-02 2.934822138553e-10 -4.947999354088e-15 
1.000000000000e-01 3.017941791057e-10 -1.160108673843e-14 
1.250000000000e-01 3.100023449633e-10 -1.861689140012e-14 
1.500000000000e-01 3.173573829376e-10 -2.029586390824e-14 
1.750000000000e-01 2.978893295075e-10 -1.765300713971e-14 
2.000000000000e-01 2.822392599744e-10 -1.329021032740e-14 
2.250000000000e-01 2.882576876878e-10 -7.504404302889e-15 
2.500000000000e-01 2.806248825557e-10 -4.278267097407e-15 
2.750000000000e-01 2.795622847050e-10 -8.488218866734e-15 
3.000000000000e-01 3.126650320498e-10 -1.741997620905e-14 
3.250000000000e-01 3.712795504969e-10 -2.768815820138e-14 
3.500000000000e-01 4.183303699634e-10 -4.131815855791e-14 
3.750000000000e-01 4.357424780819e-10 -6.305907334925e-14 
4.000000000000e-01 4.406420854300e-10 -9.598581649199e-14 
4.250000000000e-01 3.830105595215e-10 -1.346343444619e-13 
4.500000000000e-01 3.328796584859e-10 -1.752152631353e-13 
4.750000000000e-01 3.790127640744e-10 -2.224823156357e-13 
5.000000000000e-01 4.197186500086e-10 -2.939388762781e-13 
5.250000000000e-01 4.056606220058e-10 -4.374323819399e-13 
5.500000000000e-01 3.716785174351e-10 -7.629167746626e-13 
5.750000000000e-01 3.344807735486e-10 -1.577688653317e-12 
6.000000000000e-01 3.134064592306e-10 1.424970177633e-09 
 ZONE T="TIME=4.500000000000e+02"
0.000000000000e+00 3.369745267351e-10 -2.866670756015e-15 
2.500000000000e-02 3.218969555348e-10 -3.600847342751e-15 
5.000000000000e-02 2.965755687709e-10 -3.519386433087e-15 
7.500000000000e-02 2.957754794294e-10 -4.473710485623e-15 
1.000000000000e-01 3.032364212578e-10 -9.920337252246e-15 
1.250000000000e-01 3.100332891463e-10 -1.557503486183e-14 
1.500000000000e-01 3.167075732826e-10 -1.696107549872e-14 
1.750000000000e-01 2.974241600376e-10 -1.509022876026e-14 
2.000000000000e-01 2.818733436173e-10 -1.188144412584e-14 
2.250000000000e-01 2.877106405113e-10 -7.274563205391e-15 
2.500000000000e-01 2.802440273031e-10 -4.787347016974e-15 
2.750000000000e-01 2.786516202453e-10 -8.668922661348e-15 
3.000000000000e-01 3.099745199916e-10 -1.644506601049e-14 
3.250000000000e-01 3.665645775504e-10 -2.516117522461e-14 
3.500000000000e-01 4.122157970836e-10 -3.656746486483e-14 
3.750000000000e-01 4.293793644728e-10 -5.472857882373e-14 
4.000000000000e-01 4.350260405805e-10 -8.225188724593e-14 
4.250000000000e-01 3.788407682938e-10 -1.147858721189e-13 
4.500000000000e-01 3.297848535863e-10 -1.496065130224e-13 
4.750000000000e-01 3.749042706929e-10 -1.902910196730e-13 
5.000000000000e-01 4.134826200017e-10 -2.510194733780e-13 
5.250000000000e-01 3.988792131916e-10 -3.726432638240e-13 
5.500000000000e-01 3.662871699165e-10 -6.491964768555e-13 
5.750000000000e-01 3.306125151791e-10 -1.342929535806e-12 
6.000000000000e-01 3.100222470494e-10 1.313598289105e-09 
 ZONE T="TIME=5.000000000000e+02"
0.000000000000e+00 3.347420896513e-10 -2.462348038571e-15 
2.500000000000e-02 3.193341711665e-10 -3.136910994299e-15 
5.000000000000e-02 2.935546459694e-10 -3.170414125786e-15 
7.500000000000e-02 2.924436192436e-10 -4.026944456128e-15 
1.000000000000e-01 2.992243428621e-10 -8.591831393860e-15 
1.250000000000e-01 3.049946438768e-10 -1.329897847719e-14 
1.500000000000e-01 3.111310850056e-10 -1.450286087311e-14 
1.750000000000e-01 2.923029017170e-10 -1.312405678292e-14 
2.000000000000e-01 2.770933228788e-10 -1.062448015537e-14 
2.250000000000e-01 2.827534494399e-10 -6.825985367266e-15 
2.500000000000e-01 2.755639533172e-10 -4.823016977513e-15 
2.750000000000e-01 2.737113850999e-10 -8.281068314707e-15 
3.000000000000e-01 3.034422866183e-10 -1.500488931004e-14 
3.250000000000e-01 3.578982658585e-10 -2.247372926963e-14 
3.500000000000e-01 4.020003648497e-10 -3.222765216732e-14 
3.750000000000e-01 4.188144582302e-10 -4.774723527015e-14 
4.000000000000e-01 4.249474485835e-10 -7.127042688083e-14 
4.250000000000e-01 3.706089794057e-10 -9.913662561424e-14 
4.500000000000e-01 3.230484137744e-10 -1.291731697531e-13 
4.750000000000e-01 3.669186243772e-10 -1.643013515555e-13 
5.000000000000e-01 4.035859945606e-10 -2.164246325760e-13 
5.250000000000e-01 3.888931008889e-10 -3.206213868965e-13 
5.500000000000e-01 3.577985228406e-10 -5.579113605437e-13 
5.750000000000e-01 3.237616647120e-10 -1.154091641877e-12 
6.000000000000e-01 3.039004161169e-10 1.217320262072e-09 
 ZONE T="TIME=5.500000000000e+02"
0.000000000000e+00 3.279465193331e-10 -2.069556775183e-15 
2.500000000000e-02 3.125173481444e-10 -2.659628616870e-15 
5.000000000000e-02 2.867803154447e-10 -2.754218852175e-15 
7.500000000000e-02 2.854624590599e-10 -3.531748298811e-15 
1.000000000000e-01 2.916352475641e-10 -7.366805048886e-15 
1.250000000000e-01 2.965483443819e-10 -1.129162671273e-14 
1.500000000000e-01 3.022047461691e-10 -1.231500489181e-14 
1.750000000000e-01 2.840409510846e-10 -1.126714438537e-14 
2.000000000000e-01 2.693626746467e-10 -9.305369033171e-15 
2.250000000000e-01 2.748524273230e-10 -6.178427266702e-15 
2.500000000000e-01 2.680307419359e-10 -4.569575454453e-15 
2.750000000000e-01 2.660563944240e-10 -7.643105586262e-15 
3.000000000000e-01 2.941937006426e-10 -1.346706739598e-14 
3.250000000000e-01 3.463114408156e-10 -1.985918535738e-14 
3.500000000000e-01 3.886808446227e-10 -2.814150983462e-14 
3.750000000000e-01 4.050731959264e-10 -4.130650008979e-14 
4.000000000000e-01 4.115851898406e-10 -6.126998937095e-14 
4.250000000000e-01 3.594551174605e-10 -8.500493788736e-14 
4.500000000000e-01 3.137399396342e-10 -1.108562888855e-13 
4.750000000000e-01 3.561446391798e-10 -1.411073824942e-13 
5.000000000000e-01 3.908908190112e-10 -1.856165823105e-13 
5.250000000000e-01 3.763426808303e-10 -2.744674282252e-13 
5.500000000000e-01 3.468589127674e-10 -4.772170813298e-13 
5.750000000000e-01 3.145756857008e-10 -9.873816878926e-13 
6.000000000000e-01 2.955732213268e-10 1.125353420284e-09 
 ZONE T="TIME=6.000000000000e+02"
0.000000000000e+00 3.177323814924e-10 -1.828029656786e-15 
2.500000000000e-02 3.025912466422e-10 -2.367832422735e-15 
5.000000000000e-02 2.773760112747e-10 -2.486633862869e-15 
7.500000000000e-02 2.759604557565e-10 -3.163610892680e-15 
1.000000000000e-01 2.816691322854e-10 -6.470026251589e-15 
1.250000000000e-01 2.860121774865e-10 -9.857634630332e-15 
1.500000000000e-01 2.913052102764e-10 -1.078278246063e-14 
1.750000000000e-01 2.738898026541e-10 -9.960805747999e-15 
2.000000000000e-01 2.598184323056e-10 -8.322654449155e-15 
2.250000000000e-01 2.651395037494e-10 -5.641211695271e-15 
2.500000000000e-01 2.587009341680e-10 -4.274893705070e-15 
2.750000000000e-01 2.567495375025e-10 -6.954371166681e-15 
3.000000000000e-01 2.835099500310e-10 -1.199252425970e-14 
3.250000000000e-01 3.333860395472e-10 -1.753804876374e-14 
3.500000000000e-01 3.740419054785e-10 -2.476888478020e-14 
3.750000000000e-01 3.899525077430e-10 -3.626731542760e-14 
4.000000000000e-01 3.966279319776e-10 -5.369863670540e-14 
4.250000000000e-01 3.467487007381e-10 -7.438754730693e-14 
4.500000000000e-01 3.029617387078e-10 -9.686013840763e-14 
4.750000000000e-01 3.438429826040e-10 -1.231195971585e-13 
5.000000000000e-01 3.769211621325e-10 -1.617249792004e-13 
5.250000000000e-01 3.627691045569e-10 -2.387352633683e-13 
5.500000000000e-01 3.348368304092e-10 -4.146186086729e-13 
5.750000000000e-01 3.042446682346e-10 -8.576138021227e-13 
6.000000000000e-01 2.861791934871e-10 1.048667421717e-09 
 ZONE T="TIME=6.500000000000e+02"
0.000000000000e+00 3.057599349843e-10 -1.568438566379e-15 
2.500000000000e-02 2.910238540439e-10 -2.040548617333e-15 
5.000000000000e-02 2.665236984897e-10 -2.169206576109e-15 
7.500000000000e-02 2.650583669191e-10 -2.776302447415e-15 
1.000000000000e-01 2.703342622321e-10 -5.621165651229e-15 
1.250000000000e-01 2.741687472670e-10 -8.528086110437e-15 
1.500000000000e-01 2.791172278029e-10 -9.335089940574e-15 
1.750000000000e-01 2.625309790206e-10 -8.670599443196e-15 
2.000000000000e-01 2.491412813456e-10 -7.312026438843e-15 
2.250000000000e-01 2.542925813736e-10 -5.033696958641e-15 
2.500000000000e-01 2.482629855221e-10 -3.887493989568e-15 
2.750000000000e-01 2.463702808775e-10 -6.245831713401e-15 
3.000000000000e-01 2.717283292491e-10 -1.063166876132e-14 
3.250000000000e-01 3.192583101865e-10 -1.543416407747e-14 
3.500000000000e-01 3.581092533534e-10 -2.167374065072e-14 
3.750000000000e-01 3.734978796910e-10 -3.159353708091e-14 
4.000000000000e-01 3.802892153550e-10 -4.663572301684e-14 
4.250000000000e-01 3.328090846223e-10 -6.451272673560e-14 
4.500000000000e-01 2.910935076328e-10 -8.401820907021e-14 
4.750000000000e-01 3.303490727012e-10 -1.067861115133e-13 
5.000000000000e-01 3.617334809291e-10 -1.400761584694e-13 
5.250000000000e-01 3.480556323952e-10 -2.064510657046e-13 
5.500000000000e-01 3.216998526749e-10 -3.582983923818e-13 
5.750000000000e-01 2.928200903202e-10 -7.411550383299e-13 
6.000000000000e-01 2.757122687138e-10 9.743055400034e-10 
 ZONE T="TIME=7.000000000000e+02"
0.000000000000e+00 2.929409387953e-10 -1.321505438035e-15 
2.500000000000e-02 2.786730275261e-10 -1.722783077012e-15 
5.000000000000e-02 2.549904591481e-10 -1.848824648390e-15 
7.500000000000e-02 2.535029455784e-10 -2.394304897219e-15 
1.000000000000e-01 2.583725372965e-10 -4.830712881858e-15 
1.250000000000e-01 2.617470170449e-10 -7.309936824265e-15 
1.500000000000e-01 2.663713037468e-10 -7.999951399540e-15 
1.750000000000e-01 2.506492246826e-10 -7.453694325816e-15 
2.000000000000e-01 2.379729635562e-10 -6.332725007975e-15 
2.250000000000e-01 2.429574308681e-10 -4.414923376701e-15 
2.500000000000e-01 2.373486582689e-10 -3.467733955576e-15 
2.750000000000e-01 2.355394316825e-10 -5.545430446586e-15 
3.000000000000e-01 2.595072389332e-10 -9.358914662328e-15 
3.250000000000e-01 3.046696958984e-10 -1.349743359273e-14 
3.500000000000e-01 3.416887344998e-10 -1.883050632489e-14 
3.750000000000e-01 3.565316908498e-10 -2.730404932832e-14 
4.000000000000e-01 3.633946663479e-10 -4.016318578731e-14 
4.250000000000e-01 3.183461399413e-10 -5.548698565958e-14 
4.500000000000e-01 2.787309714342e-10 -7.233117998038e-14 
4.750000000000e-01 3.162920119290e-10 -9.197748791419e-14 
5.000000000000e-01 3.459619333129e-10 -1.204926168776e-13 
5.250000000000e-01 3.327739699252e-10 -1.773198329847e-13 
5.500000000000e-01 3.079645672901e-10 -3.075849271461e-13 
5.750000000000e-01 2.807654093465e-10 -6.363891355767e-13 
6.000000000000e-01 2.645916075291e-10 9.023042616281e-10 
 ZONE T="TIME=7.500000000000e+02"
0.000000000000e+00 2.796426278141e-10 -1.134246264753e-15 
2.500000000000e-02 2.659143425955e-10 -1.481280600691e-15 
5.000000000000e-02 2.431555047483e-10 -1.598470868601e-15 
7.500000000000e-02 2.416764098692e-10 -2.079193461252e-15 
1.000000000000e-01 2.461965975134e-10 -4.181537402654e-15 
1.250000000000e-01 2.492128967485e-10 -6.319255715131e-15 
1.500000000000e-01 2.535589583069e-10 -6.922286713854e-15 
1.750000000000e-01 2.386885119043e-10 -6.468859497286e-15 
2.000000000000e-01 2.267155751635e-10 -5.522183770176e-15 
2.250000000000e-01 2.315366815801e-10 -3.884355529695e-15 
2.500000000000e-01 2.263331604647e-10 -3.084905172955e-15 
2.750000000000e-01 2.246417121583e-10 -4.898294905764e-15 
3.000000000000e-01 2.473294010363e-10 -8.203297907941e-15 
3.250000000000e-01 2.902324922670e-10 -1.177819290407e-14 
3.500000000000e-01 3.254810061382e-10 -1.637518481896e-14 
3.750000000000e-01 3.397641082052e-10 -2.368004454803e-14 
4.000000000000e-01 3.466116616945e-10 -3.477205245181e-14 
4.250000000000e-01 3.039013693689e-10 -4.799639045355e-14 
4.500000000000e-01 2.663125422462e-10 -6.255972960476e-14 
4.750000000000e-01 3.021828293570e-10 -7.951929293031e-14 
5.000000000000e-01 3.302378765290e-10 -1.040351045044e-13 
5.250000000000e-01 3.175718602817e-10 -1.528809352108e-13 
5.500000000000e-01 2.942122138396e-10 -2.650191176879e-13 
5.750000000000e-01 2.685937170591e-10 -5.483265742657e-13 
6.000000000000e-01 2.533188060351e-10 8.373235337321e-10 
 ZONE T="TIME=8.000000000000e+02"
0.000000000000e+00 2.665992697214e-10 -9.354061260220e-16 
2.500000000000e-02 2.533846853193e-10 -1.219916568761e-15 
5.000000000000e-02 2.315124983310e-10 -1.322974256151e-15 
7.500000000000e-02 2.300402383106e-10 -1.752351409490e-15 
1.000000000000e-01 2.342047386561e-10 -3.543365275201e-15 
1.250000000000e-01 2.368415417878e-10 -5.355789181491e-15 
1.500000000000e-01 2.409031484067e-10 -5.860150797277e-15 
1.750000000000e-01 2.268843646561e-10 -5.474243558315e-15 
2.000000000000e-01 2.156179482488e-10 -4.690863803726e-15 
2.250000000000e-01 2.202836132000e-10 -3.322427825294e-15 
2.500000000000e-01 2.154883783709e-10 -2.667791076553e-15 
2.750000000000e-01 2.139010706214e-10 -4.253607983467e-15 
3.000000000000e-01 2.352868089479e-10 -7.109564439247e-15 
3.250000000000e-01 2.759233871606e-10 -1.016207617807e-14 
3.500000000000e-01 3.094005579691e-10 -1.403814859943e-14 
3.750000000000e-01 3.231266499120e-10 -2.019437470986e-14 
4.000000000000e-01 3.299726031435e-10 -2.955679040364e-14 
4.250000000000e-01 2.895823448607e-10 -4.076380461809e-14 
4.500000000000e-01 2.539922524263e-10 -5.323183209955e-14 
4.750000000000e-01 2.881439668481e-10 -6.774124054979e-14 
5.000000000000e-01 3.145185921934e-10 -8.851840890023e-14 
5.250000000000e-01 3.023107165142e-10 -1.299062351724e-13 
5.500000000000e-01 2.803592144325e-10 -2.251633538265e-13 
5.750000000000e-01 2.562772662977e-10 -4.661073820179e-13 
6.000000000000e-01 2.418388818022e-10 7.715747794000e-10 
 ZONE T="TIME=8.500000000000e+02"
0.000000000000e+00 2.534124631048e-10 -8.643995276241e-16 
2.500000000000e-02 2.408312563031e-10 -1.131893371158e-15 
5.000000000000e-02 2.200100185784e-10 -1.225984920425e-15 
7.500000000000e-02 2.185955357436e-10 -1.589283218701e-15 
1.000000000000e-01 2.225380481449e-10 -3.179486076788e-15 
1.250000000000e-01 2.250327957295e-10 -4.803094530989e-15 
1.500000000000e-01 2.289218582286e-10 -5.279689015252e-15 
1.750000000000e-01 2.156653283115e-10 -4.958318142349e-15 
2.000000000000e-01 2.050291960628e-10 -4.248746773658e-15 
2.250000000000e-01 2.095521735994e-10 -3.013696208418e-15 
2.500000000000e-01 2.051074962859e-10 -2.411708963106e-15 
2.750000000000e-01 2.037022775852e-10 -3.767222951001e-15 
3.000000000000e-01 2.241217830118e-10 -6.234194948539e-15 
3.250000000000e-01 2.628817054350e-10 -8.909712637357e-15 
3.500000000000e-01 2.948434601002e-10 -1.237279662068e-14 
3.750000000000e-01 3.080287590960e-10 -1.788821589035e-14 
4.000000000000e-01 3.146981437714e-10 -2.627203343625e-14 
4.250000000000e-01 2.762904895248e-10 -3.623918878386e-14 
4.500000000000e-01 2.424293918592e-10 -4.714836653985e-14 
4.750000000000e-01 2.750227479582e-10 -5.979061815803e-14 
5.000000000000e-01 3.000872556812e-10 -7.802128360589e-14 
5.250000000000e-01 2.884221704665e-10 -1.143531008810e-13 
5.500000000000e-01 2.676424187830e-10 -1.979503058290e-13 
5.750000000000e-01 2.448518842794e-10 -4.094550662951e-13 
6.000000000000e-01 2.311955733373e-10 7.235552579317e-10 
 ZONE T="TIME=9.000000000000e+02"
0.000000000000e+00 2.407036309076e-10 -7.917707447087e-16 
2.500000000000e-02 2.287429738179e-10 -1.039689627428e-15 
5.000000000000e-02 2.089515468926e-10 -1.126746889852e-15 
7.500000000000e-02 2.076054893774e-10 -1.442815095106e-15 
1.000000000000e-01 2.113501649459e-10 -2.864809148087e-15 
1.250000000000e-01 2.137263784896e-10 -4.324371751071e-15 
1.500000000000e-01 2.174538446259e-10 -4.764897519219e-15 
1.750000000000e-01 2.049192188938e-10 -4.486337024698e-15 
2.000000000000e-01 1.948824982458e-10 -3.840104161318e-15 
2.250000000000e-01 1.992636482764e-10 -2.716983573188e-15 
2.500000000000e-01 1.951373968723e-10 -2.156246290228e-15 
2.750000000000e-01 1.938940417607e-10 -3.328190989243e-15 
3.000000000000e-01 2.133903644891e-10 -5.485846207011e-15 
3.250000000000e-01 2.503551689773e-10 -7.847615418715e-15 
3.500000000000e-01 2.808627054990e-10 -1.094131335831e-14 
3.750000000000e-01 2.935190315792e-10 -1.588051823718e-14 
4.000000000000e-01 2.999996640494e-10 -2.338661778194e-14 
4.250000000000e-01 2.634856089364e-10 -3.227102298552e-14 
4.500000000000e-01 2.312846777926e-10 -4.189395863566e-14 
4.750000000000e-01 2.623954331910e-10 -5.300234601249e-14 
5.000000000000e-01 2.862365460216e-10 -6.907237352071e-14 
5.250000000000e-01 2.751078824525e-10 -1.011240456720e-13 
5.500000000000e-01 2.554274729039e-10 -1.749090537229e-13 
5.750000000000e-01 2.338447221963e-10 -3.616411038183e-13 
6.000000000000e-01 2.209223311593e-10 6.798907241641e-10 
 ZONE T="TIME=9.500000000000e+02"
0.000000000000e+00 2.287489317221e-10 -7.019896740980e-16 
2.500000000000e-02 2.173548944551e-10 -9.220190491442e-16 
5.000000000000e-02 1.985105057713e-10 -1.000249251031e-15 
7.500000000000e-02 1.972251672450e-10 -1.282312459500e-15 
1.000000000000e-01 2.007651364540e-10 -2.545552004173e-15 
1.250000000000e-01 2.029918285559e-10 -3.842491756955e-15 
1.500000000000e-01 2.065457560117e-10 -4.234280845684e-15 
1.750000000000e-01 1.946995367791e-10 -3.985403855426e-15 
2.000000000000e-01 1.852326054165e-10 -3.407769231572e-15 
2.250000000000e-01 1.894672987942e-10 -2.404431724212e-15 
2.500000000000e-01 1.856362179451e-10 -1.897523299724e-15 
2.750000000000e-01 1.845158003644e-10 -2.925725257496e-15 
3.000000000000e-01 2.030672848381e-10 -4.826143286811e-15 
3.250000000000e-01 2.382504847747e-10 -6.904183983944e-15 
3.500000000000e-01 2.673201247107e-10 -9.626980507337e-15 
3.750000000000e-01 2.794533413847e-10 -1.398031041793e-14 
4.000000000000e-01 2.857632248110e-10 -2.060048864126e-14 
4.250000000000e-01 2.510933900848e-10 -2.843093680612e-14 
4.500000000000e-01 2.205060263457e-10 -3.689856923852e-14 
4.750000000000e-01 2.501654815724e-10 -4.664624229480e-14 