 TITLE = "Profiles along polylines"
 VARIABLES = "DIST" "VELOCITY_X2" "VELOCITY_Y2" 
 ZONE T="TIME=0.000000000000e+000"
0.000000000000e+000 0.000000000000e+000 0.000000000000e+000 
2.500000000000e-002 0.000000000000e+000 0.000000000000e+000 
5.000000000000e-002 0.000000000000e+000 0.000000000000e+000 
7.500000000000e-002 0.000000000000e+000 0.000000000000e+000 
1.000000000000e-001 0.000000000000e+000 0.000000000000e+000 
1.250000000000e-001 0.000000000000e+000 0.000000000000e+000 
1.500000000000e-001 0.000000000000e+000 0.000000000000e+000 
1.750000000000e-001 0.000000000000e+000 0.000000000000e+000 
2.000000000000e-001 0.000000000000e+000 0.000000000000e+000 
2.250000000000e-001 0.000000000000e+000 0.000000000000e+000 
2.500000000000e-001 0.000000000000e+000 0.000000000000e+000 
2.750000000000e-001 0.000000000000e+000 0.000000000000e+000 
3.000000000000e-001 0.000000000000e+000 0.000000000000e+000 
3.250000000000e-001 0.000000000000e+000 0.000000000000e+000 
3.500000000000e-001 0.000000000000e+000 0.000000000000e+000 
3.750000000000e-001 0.000000000000e+000 0.000000000000e+000 
4.000000000000e-001 0.000000000000e+000 0.000000000000e+000 
4.250000000000e-001 0.000000000000e+000 0.000000000000e+000 
4.500000000000e-001 0.000000000000e+000 0.000000000000e+000 
4.750000000000e-001 0.000000000000e+000 0.000000000000e+000 
5.000000000000e-001 0.000000000000e+000 0.000000000000e+000 
5.250000000000e-001 0.000000000000e+000 0.000000000000e+000 
5.500000000000e-001 0.000000000000e+000 0.000000000000e+000 
5.750000000000e-001 0.000000000000e+000 0.000000000000e+000 
6.000000000000e-001 0.000000000000e+000 0.000000000000e+000 
 TITLE = "Profiles along polylines"
 VARIABLES = "DIST" "VELOCITY_X2" "VELOCITY_Y2" 
 ZONE T="TIME=5.000000000000e+001"
0.000000000000e+000 8.653956718777e-011 -3.073020381341e-014 
2.500000000000e-002 9.844191200863e-011 -2.526158715676e-014 
5.000000000000e-002 1.100668012685e-010 -6.928670723679e-014 
7.500000000000e-002 1.318218960966e-010 -3.264159097917e-013 
1.000000000000e-001 1.653043298852e-010 -7.787818256559e-013 
1.250000000000e-001 1.375148067652e-010 -9.996274411137e-013 
1.500000000000e-001 7.355606198843e-011 -7.016233733741e-013 
1.750000000000e-001 4.731158040213e-011 -2.197670832301e-013 
2.000000000000e-001 5.415927952726e-011 5.112333681989e-014 
2.250000000000e-001 8.693276631596e-011 5.778761697916e-014 
2.500000000000e-001 1.489772072783e-010 -8.332432555693e-014 
2.750000000000e-001 1.824817687972e-010 -4.627624863873e-014 
3.000000000000e-001 1.590975403668e-010 3.872675336069e-013 
3.250000000000e-001 1.174443988940e-010 8.805536043481e-013 
3.500000000000e-001 8.777306281369e-011 1.007224691530e-012 
3.750000000000e-001 7.847290519743e-011 8.275815566431e-013 
4.000000000000e-001 5.535352244392e-011 7.699343548635e-013 
4.250000000000e-001 4.181500931800e-011 1.101589277401e-012 
4.500000000000e-001 7.791792471407e-011 1.452065242959e-012 
4.750000000000e-001 9.641241691836e-011 1.184163826904e-012 
5.000000000000e-001 7.171600346457e-011 1.770795683116e-013 
5.250000000000e-001 5.893221441553e-011 -1.229698866511e-012 
5.500000000000e-001 7.032306483528e-011 -3.293029892536e-012 
5.750000000000e-001 8.142495077805e-011 -8.026925676470e-012 
6.000000000000e-001 1.742294228851e-011 3.119173179261e-009 
 ZONE T="TIME=1.000000000000e+002"
0.000000000000e+000 7.114210518700e-011 9.820836252609e-016 
2.500000000000e-002 8.030965991000e-011 4.535936231525e-015 
5.000000000000e-002 9.025621122106e-011 -3.386760419961e-014 
7.500000000000e-002 1.071558109947e-010 -1.795231511795e-013 
1.000000000000e-001 1.299168765636e-010 -3.785011074611e-013 
1.250000000000e-001 1.050440855328e-010 -4.674224258822e-013 
1.500000000000e-001 5.334402894186e-011 -3.595439330352e-013 
1.750000000000e-001 3.068764015999e-011 -1.632320483543e-013 
2.000000000000e-001 3.357933807348e-011 -2.074228284591e-014 
2.250000000000e-001 5.665387082272e-011 2.499383935614e-014 
2.500000000000e-001 1.019427572968e-010 8.966293870179e-015 
2.750000000000e-001 1.270643828311e-010 6.187051098457e-014 
3.000000000000e-001 1.111990351123e-010 2.713834228312e-013 
3.250000000000e-001 8.223574602199e-011 5.021586190287e-013 
3.500000000000e-001 6.125008856137e-011 5.664491371856e-013 
3.750000000000e-001 5.351401621879e-011 4.902825607671e-013 
4.000000000000e-001 3.566325558007e-011 4.529020695512e-013 
4.250000000000e-001 2.639506925548e-011 5.353717018276e-013 
4.500000000000e-001 5.565775831791e-011 5.829723468666e-013 
4.750000000000e-001 7.492662721528e-011 3.393510284655e-013 
5.000000000000e-001 6.322022591224e-011 -2.727361891689e-013 
5.250000000000e-001 5.871970374805e-011 -1.179799790886e-012 
5.500000000000e-001 6.996889899394e-011 -2.665833540350e-012 
5.750000000000e-001 7.779661227564e-011 -6.081779170804e-012 
6.000000000000e-001 2.324898877087e-011 2.402368038681e-009 
 ZONE T="TIME=1.500000000000e+002"
0.000000000000e+000 7.179198120911e-011 7.961951578942e-015 
2.500000000000e-002 7.909411569272e-011 1.302113599039e-014 
5.000000000000e-002 8.747476744460e-011 -8.037573535957e-015 
7.500000000000e-002 1.015102722257e-010 -8.911339487834e-014 
1.000000000000e-001 1.186561270275e-010 -1.849803216948e-013 
1.250000000000e-001 9.537194039837e-011 -2.222833087340e-013 
1.500000000000e-001 5.029749280601e-011 -1.787142649920e-013 
1.750000000000e-001 3.006824102265e-011 -9.533002838998e-014 
2.000000000000e-001 3.157086966486e-011 -2.116353562455e-014 
2.250000000000e-001 5.015150328986e-011 1.917151451877e-014 
2.500000000000e-001 8.675892276493e-011 3.149508875196e-014 
2.750000000000e-001 1.071636420553e-010 6.959755945548e-014 
3.000000000000e-001 9.520132577242e-011 1.727177946063e-013 
3.250000000000e-001 7.361898698893e-011 2.844598068266e-013 
3.500000000000e-001 5.832355036282e-011 3.139071130733e-013 
3.750000000000e-001 5.275435284973e-011 2.695229674849e-013 
4.000000000000e-001 3.861103057801e-011 2.360632388314e-013 
4.250000000000e-001 3.230065822051e-011 2.453413772582e-013 
4.500000000000e-001 5.931931660660e-011 2.229711777230e-013 
4.750000000000e-001 7.995622589974e-011 3.431475616403e-014 
5.000000000000e-001 7.472059967850e-011 -3.834941777575e-013 
5.250000000000e-001 7.280651845945e-011 -1.026252699172e-012 
5.500000000000e-001 8.211582644070e-011 -2.139799257907e-012 
5.750000000000e-001 8.724930992441e-011 -4.750722226308e-012 
6.000000000000e-001 3.796009027992e-011 2.065819572523e-009 
 ZONE T="TIME=2.000000000000e+002"
0.000000000000e+000 8.294572005710e-011 8.472911590529e-015 
2.500000000000e-002 8.888834999516e-011 1.417947859169e-014 
5.000000000000e-002 9.591910331400e-011 2.623135851840e-015 
7.500000000000e-002 1.082427009009e-010 -5.027725580640e-014 
1.000000000000e-001 1.221077808977e-010 -1.089222291281e-013 
1.250000000000e-001 9.870264045321e-011 -1.284476495538e-013 
1.500000000000e-001 5.651259050183e-011 -1.035445990639e-013 
1.750000000000e-001 3.796501455772e-011 -5.733331506209e-014 
2.000000000000e-001 3.934175998610e-011 -1.177482247546e-014 
2.250000000000e-001 5.586362960695e-011 1.767514375741e-014 
2.500000000000e-001 8.765343325473e-011 3.013959860826e-014 
2.750000000000e-001 1.048215154148e-010 5.560082589142e-014 
3.000000000000e-001 9.461113893853e-011 1.178212284387e-013 
3.250000000000e-001 7.778520316549e-011 1.848977830618e-013 
3.500000000000e-001 6.682326658093e-011 1.991083888430e-013 
3.750000000000e-001 6.359945647562e-011 1.636562528301e-013 
4.000000000000e-001 5.180948955075e-011 1.317175042675e-013 
4.250000000000e-001 4.729498350312e-011 1.222235111483e-013 
4.500000000000e-001 7.446953840393e-011 8.693791553017e-014 
4.750000000000e-001 9.760067574121e-011 -7.017064489081e-014 
5.000000000000e-001 9.653390102860e-011 -4.052830851754e-013 
5.250000000000e-001 9.528696671141e-011 -9.315389615155e-013 
5.500000000000e-001 1.024511558065e-010 -1.866786953552e-012 
5.750000000000e-001 1.051854898780e-010 -4.087412035589e-012 
6.000000000000e-001 5.775773488436e-011 1.899712274592e-009 
 ZONE T="TIME=2.500000000000e+002"
0.000000000000e+000 9.768757905035e-011 7.432545030947e-015 
2.500000000000e-002 1.022529040932e-010 1.262607578433e-014 
5.000000000000e-002 1.078841557658e-010 6.508163632549e-015 
7.500000000000e-002 1.186178009354e-010 -2.761767754861e-014 
1.000000000000e-001 1.293824497034e-010 -6.254230791577e-014 
1.250000000000e-001 1.054256370171e-010 -7.147693620804e-014 
1.500000000000e-001 6.560622569277e-011 -5.737360183325e-014 
1.750000000000e-001 4.885570029526e-011 -3.278334274009e-014 
2.000000000000e-001 5.043245165568e-011 -5.863937236008e-015 
2.250000000000e-001 6.516019690449e-011 1.360854845622e-014 
2.500000000000e-001 9.233636096601e-011 2.276044927489e-014 
2.750000000000e-001 1.060211894205e-010 3.869588482329e-014 
3.000000000000e-001 9.702158732501e-011 7.582096120986e-014 
3.250000000000e-001 8.467253253437e-011 1.156710875010e-013 
3.500000000000e-001 7.799700365525e-011 1.211554038769e-013 
3.750000000000e-001 7.714740296987e-011 9.319402311650e-014 
4.000000000000e-001 6.736280460261e-011 6.494262245802e-014 
4.250000000000e-001 6.421908880706e-011 4.694589263040e-014 
4.500000000000e-001 9.158593580689e-011 7.810882013964e-015 
4.750000000000e-001 1.172185075264e-010 -1.207471667642e-013 
5.000000000000e-001 1.199828581708e-010 -3.869108619144e-013 
5.250000000000e-001 1.190889422242e-010 -8.125499390308e-013 
5.500000000000e-001 1.239893771479e-010 -1.585068513784e-012 
5.750000000000e-001 1.243074602668e-010 -3.436937585277e-012 
6.000000000000e-001 7.869363493967e-011 1.730152017599e-009 
 ZONE T="TIME=3.000000000000e+002"
0.000000000000e+000 1.151735223299e-010 6.040524842392e-015 
2.500000000000e-002 1.186433986007e-010 1.059642755600e-014 
5.000000000000e-002 1.231494346171e-010 7.190664611995e-015 
7.500000000000e-002 1.328666750137e-010 -1.706998916290e-014 
1.000000000000e-001 1.414445935033e-010 -4.069269956317e-014 
1.250000000000e-001 1.162946507041e-010 -4.491838351679e-014 
1.500000000000e-001 7.732717389496e-011 -3.510430794149e-014 
1.750000000000e-001 6.187743606687e-011 -1.998533100224e-014 
2.000000000000e-001 6.394913315178e-011 -2.827842058490e-015 
2.250000000000e-001 7.772193124677e-011 9.684402982161e-015 
2.500000000000e-001 1.017590377514e-010 1.489662640784e-014 
2.750000000000e-001 1.125889963518e-010 2.497838483715e-014 
3.000000000000e-001 1.039486072595e-010 5.022930759516e-014 
3.250000000000e-001 9.481141978869e-011 7.742248820420e-014 
3.500000000000e-001 9.148147572024e-011 7.893295050523e-014 
3.750000000000e-001 9.258480557911e-011 5.489756046738e-014 
4.000000000000e-001 8.400027030370e-011 2.916567686323e-014 
4.250000000000e-001 8.158188424754e-011 8.989500912847e-015 
4.500000000000e-001 1.096087700133e-010 -2.899660810476e-014 
4.750000000000e-001 1.376796094410e-010 -1.397234139694e-013 
5.000000000000e-001 1.432485920373e-010 -3.665304131503e-013 
5.250000000000e-001 1.422264408059e-010 -7.332406255776e-013 
5.500000000000e-001 1.451425825765e-010 -1.406108674935e-012 
5.750000000000e-001 1.434581404594e-010 -3.029116540299e-012 
6.000000000000e-001 9.865696448418e-011 1.620924813554e-009 
 ZONE T="TIME=3.500000000000e+002"
0.000000000000e+000 1.323948516974e-010 4.773783781611e-015 
2.500000000000e-002 1.349128236141e-010 8.622766426136e-015 
5.000000000000e-002 1.384603640678e-010 6.635850590830e-015 
7.500000000000e-002 1.473999888512e-010 -1.124441073127e-014 
1.000000000000e-001 1.541602283272e-010 -2.766315873998e-014 
1.250000000000e-001 1.277166735699e-010 -2.911003270097e-014 
1.500000000000e-001 8.916043944212e-011 -2.202733521488e-014 
1.750000000000e-001 7.480916827281e-011 -1.273665469206e-014 
2.000000000000e-001 7.740903278032e-011 -1.880280977089e-015 
2.250000000000e-001 9.046417236991e-011 5.797253247294e-015 
2.500000000000e-001 1.118701008318e-010 8.139951089355e-015 
2.750000000000e-001 1.201040232476e-010 1.447605057337e-014 
3.000000000000e-001 1.115039889503e-010 3.249598721512e-014 
3.250000000000e-001 1.049657105647e-010 5.202640692540e-014 
3.500000000000e-001 1.044115954747e-010 5.150306534099e-014 
3.750000000000e-001 1.070873744125e-010 3.069305538930e-014 
4.000000000000e-001 9.929916195691e-011 7.383613854120e-015 
4.250000000000e-001 9.727363549531e-011 -1.336741584895e-014 
4.500000000000e-001 1.258394487900e-010 -4.952153986153e-014 
4.750000000000e-001 1.559874487569e-010 -1.464775304285e-013 
5.000000000000e-001 1.638510364489e-010 -3.434780776317e-013 
5.250000000000e-001 1.626352161465e-010 -6.648119272688e-013 
5.500000000000e-001 1.638507330799e-010 -1.259331977802e-012 
5.750000000000e-001 1.604930814314e-010 -2.700006939463e-012 
6.000000000000e-001 1.164042365881e-010 1.527228430909e-009 
 ZONE T="TIME=4.000000000000e+002"
0.000000000000e+000 1.481325414329e-010 3.721509207040e-015 
2.500000000000e-002 1.498346965375e-010 6.925812036981e-015 
5.000000000000e-002 1.525751521234e-010 5.720377161915e-015 
7.500000000000e-002 1.609082665843e-010 -7.802347429238e-015 
1.000000000000e-001 1.661628177195e-010 -1.937093301970e-014 
1.250000000000e-001 1.385089779887e-010 -1.910782131240e-014 
1.500000000000e-001 1.001681521368e-010 -1.393622406283e-014 
1.750000000000e-001 8.675293810201e-011 -8.519088593102e-015 
2.000000000000e-001 8.985231117373e-011 -1.918360877595e-015 
2.250000000000e-001 1.023379478301e-010 2.429885755512e-015 
2.500000000000e-001 1.215178066239e-010 2.825615482918e-015 
2.750000000000e-001 1.274465147521e-010 6.726917541030e-015 
3.000000000000e-001 1.187165170526e-010 2.003076444058e-014 
3.250000000000e-001 1.142635433495e-010 3.457992967242e-014 
3.500000000000e-001 1.159640665828e-010 3.301270576602e-014 
3.750000000000e-001 1.198676137134e-010 1.488173634649e-014 
4.000000000000e-001 1.126044195832e-010 -6.237061757503e-015 
4.250000000000e-001 1.107622163644e-010 -2.680853892518e-014 
4.500000000000e-001 1.396963328527e-010 -6.091779252621e-014 
4.750000000000e-001 1.715125805827e-010 -1.468223100453e-013 
5.000000000000e-001 1.812233233545e-010 -3.202569796458e-013 
5.250000000000e-001 1.798053819395e-010 -6.051555630769e-013 
5.500000000000e-001 1.796048714492e-010 -1.135634062473e-012 
5.750000000000e-001 1.748988875114e-010 -2.425793998364e-012 
6.000000000000e-001 1.315488955253e-010 1.445291648469e-009 
 ZONE T="TIME=4.500000000000e+002"
0.000000000000e+000 1.622869338197e-010 2.912804953610e-015 
2.500000000000e-002 1.633931726969e-010 5.666490322681e-015 
5.000000000000e-002 1.655494137253e-010 4.780261827839e-015 
7.500000000000e-002 1.735629396368e-010 -6.597868098851e-015 
1.000000000000e-001 1.778396738649e-010 -1.615057567445e-014 
1.250000000000e-001 1.489579700388e-010 -1.534441061209e-014 
1.500000000000e-001 1.103051029631e-010 -1.075468468084e-014 
1.750000000000e-001 9.750029708399e-011 -6.763135901416e-015 
2.000000000000e-001 1.010946421756e-010 -2.303198607506e-015 
2.250000000000e-001 1.133567600354e-010 -1.083965463195e-016 
2.500000000000e-001 1.311251483003e-010 -1.318787932716e-015 
2.750000000000e-001 1.353131716069e-010 1.104154100642e-015 
3.000000000000e-001 1.262005335893e-010 1.243173946977e-014 
3.250000000000e-001 1.230813062070e-010 2.501636921244e-014 
3.500000000000e-001 1.263481829009e-010 2.314829715471e-014 
3.750000000000e-001 1.311174033617e-010 6.346757802602e-015 
4.000000000000e-001 1.240296734193e-010 -1.351359981726e-014 
4.250000000000e-001 1.221434944114e-010 -3.321368193135e-014 
4.500000000000e-001 1.515423492597e-010 -6.513110546932e-014 
4.750000000000e-001 1.847595649439e-010 -1.445007627482e-013 
5.000000000000e-001 1.957354789814e-010 -3.051798920033e-013 
5.250000000000e-001 1.940384600421e-010 -5.698577453363e-013 
5.500000000000e-001 1.927765744768e-010 -1.063281128734e-012 
5.750000000000e-001 1.871044685446e-010 -2.265409629920e-012 
6.000000000000e-001 1.440781508013e-010 1.396113730751e-009 
 ZONE T="TIME=5.000000000000e+002"
0.000000000000e+000 1.734456784878e-010 2.275306819970e-015 
2.500000000000e-002 1.739493250629e-010 4.538630251278e-015 
5.000000000000e-002 1.755286987115e-010 3.897683317363e-015 
7.500000000000e-002 1.830977272090e-010 -4.982956370236e-015 
1.000000000000e-001 1.862561480485e-010 -1.160449208971e-014 
1.250000000000e-001 1.565836265410e-010 -9.888870344797e-015 
1.500000000000e-001 1.182315712585e-010 -6.711678848713e-015 
1.750000000000e-001 1.061655895309e-010 -5.109397870706e-015 
2.000000000000e-001 1.101011897651e-010 -2.951244129585e-015 
2.250000000000e-001 1.218642034303e-010 -2.283448627558e-015 
2.500000000000e-001 1.378679947606e-010 -4.084299500498e-015 
2.750000000000e-001 1.402646280542e-010 -2.685812545006e-015 
3.000000000000e-001 1.310037793008e-010 5.953251618996e-015 
3.250000000000e-001 1.293281918808e-010 1.563805723609e-014 
3.500000000000e-001 1.341102115471e-010 1.349126999440e-014 
3.750000000000e-001 1.396131471785e-010 -1.090969763594e-015 
4.000000000000e-001 1.328240696412e-010 -1.901736961764e-014 
4.250000000000e-001 1.309762022627e-010 -3.826553702439e-014 
4.500000000000e-001 1.603699794255e-010 -6.856824765210e-014 
4.750000000000e-001 1.945360161932e-010 -1.397786298347e-013 
5.000000000000e-001 2.067914391343e-010 -2.827570273803e-013 
5.250000000000e-001 2.050280370520e-010 -5.196650266435e-013 
5.500000000000e-001 2.028450105921e-010 -9.638095116825e-013 
5.750000000000e-001 1.963372800347e-010 -2.048737735838e-012 
6.000000000000e-001 1.542713755267e-010 1.324178653981e-009 
 ZONE T="TIME=5.500000000000e+002"
0.000000000000e+000 1.818807243683e-010 1.746933490609e-015 
2.500000000000e-002 1.817899145748e-010 3.554789304289e-015 
5.000000000000e-002 1.827959808312e-010 3.197885575575e-015 
7.500000000000e-002 1.898259696099e-010 -3.130106629623e-015 
1.000000000000e-001 1.918185911597e-010 -6.748346186681e-015 
1.250000000000e-001 1.617694489130e-010 -4.153756463799e-015 
1.500000000000e-001 1.242320352513e-010 -2.513447244835e-015 
1.750000000000e-001 1.130194431705e-010 -3.348931423686e-015 
2.000000000000e-001 1.171974231390e-010 -3.328960057060e-015 
2.250000000000e-001 1.282875995228e-010 -3.801976621378e-015 
2.500000000000e-001 1.423293036516e-010 -5.728019438744e-015 
2.750000000000e-001 1.429591069378e-010 -5.110395207623e-015 
3.000000000000e-001 1.337289494202e-010 7.080747621111e-016 
3.250000000000e-001 1.335289405584e-010 7.256891147344e-015 
3.500000000000e-001 1.397475677698e-010 4.847154485003e-015 
3.750000000000e-001 1.458938364428e-010 -7.258209103195e-015 
4.000000000000e-001 1.395163335204e-010 -2.295928150063e-014 
4.250000000000e-001 1.377787969512e-010 -4.156901247390e-014 
4.500000000000e-001 1.668100189413e-010 -6.997655906079e-014 
4.750000000000e-001 2.015160045690e-010 -1.319401781699e-013 
5.000000000000e-001 2.149599462006e-010 -2.546611489385e-013 
5.250000000000e-001 2.132314401465e-010 -4.595105444192e-013 
5.500000000000e-001 2.102200332904e-010 -8.465381679444e-013 
5.750000000000e-001 2.030007417122e-010 -1.795212915312e-012 
6.000000000000e-001 1.624257990773e-010 1.236861148901e-009 
 ZONE T="TIME=6.000000000000e+002"
0.000000000000e+000 1.888186759850e-010 1.330264436572e-015 
2.500000000000e-002 1.883391166573e-010 2.865703156292e-015 
5.000000000000e-002 1.889581027152e-010 2.629751995664e-015 
7.500000000000e-002 1.957040586888e-010 -2.603688349594e-015 
1.000000000000e-001 1.970521307345e-010 -5.350361541153e-015 
1.250000000000e-001 1.666186651442e-010 -2.733185518845e-015 
1.500000000000e-001 1.293917984590e-010 -1.397086207130e-015 
1.750000000000e-001 1.187407778688e-010 -2.730840279572e-015 
2.000000000000e-001 1.231923656356e-010 -3.525499611411e-015 
2.250000000000e-001 1.339858168474e-010 -4.778019938175e-015 
2.500000000000e-001 1.469037584559e-010 -7.197134815799e-015 
2.750000000000e-001 1.463534000469e-010 -7.136540485495e-015 
3.000000000000e-001 1.369438179679e-010 -2.295436224390e-015 
3.250000000000e-001 1.375538721642e-010 3.250116680425e-015 
3.500000000000e-001 1.446420074251e-010 8.809137253499e-016 
3.750000000000e-001 1.512066429296e-010 -1.013722287199e-014 
4.000000000000e-001 1.449851822039e-010 -2.462819789707e-014 
4.250000000000e-001 1.432067006042e-010 -4.200951414766e-014 
4.500000000000e-001 1.721045965319e-010 -6.814004010442e-014 
4.750000000000e-001 2.072193759062e-010 -1.245186990837e-013 
5.000000000000e-001 2.213143020990e-010 -2.363398931385e-013 
5.250000000000e-001 2.194796742380e-010 -4.232825613797e-013 
5.500000000000e-001 2.158970038459e-010 -7.766260242691e-013 
5.750000000000e-001 2.082583184705e-010 -1.643861726958e-012 
6.000000000000e-001 1.686536890222e-010 1.184725259179e-009 
 ZONE T="TIME=6.500000000000e+002"
0.000000000000e+000 1.942031953970e-010 1.016597971238e-015 
2.500000000000e-002 1.934989007121e-010 2.372590252214e-015 
5.000000000000e-002 1.938918394099e-010 2.078993553337e-015 
7.500000000000e-002 2.005404899085e-010 -2.956844523613e-015 
1.000000000000e-001 2.016025850425e-010 -5.897750579847e-015 
1.250000000000e-001 1.707898288794e-010 -3.619698290942e-015 
1.500000000000e-001 1.335189506341e-010 -2.056774843951e-015 
1.750000000000e-001 1.231845291766e-010 -2.992111329422e-015 
2.000000000000e-001 1.278879175736e-010 -3.861524419638e-015 
2.250000000000e-001 1.386245848741e-010 -5.577817274350e-015 
2.500000000000e-001 1.510147836485e-010 -8.542375447161e-015 
2.750000000000e-001 1.497414867221e-010 -8.804669233551e-015 
3.000000000000e-001 1.400470615480e-010 -3.903533632282e-015 
3.250000000000e-001 1.409988606602e-010 1.835024707737e-015 
3.500000000000e-001 1.485342951864e-010 -2.818330308432e-016 
3.750000000000e-001 1.553275009628e-010 -1.092446737647e-014 
4.000000000000e-001 1.490807629749e-010 -2.479639318360e-014 
4.250000000000e-001 1.471705965749e-010 -4.093923591233e-014 
4.500000000000e-001 1.760858936119e-010 -6.513713936879e-014 
4.750000000000e-001 2.115206126682e-010 -1.186335760337e-013 
5.000000000000e-001 2.259336892851e-010 -2.257299733254e-013 
5.250000000000e-001 2.239688841585e-010 -4.044735360448e-013 
5.500000000000e-001 2.200582805984e-010 -7.411601319997e-013 
5.750000000000e-001 2.122240111599e-010 -1.567215716590e-012 
6.000000000000e-001 1.731629654890e-010 1.157750711840e-009 
 ZONE T="TIME=7.000000000000e+002"
0.000000000000e+000 1.971949374412e-010 7.971339099516e-016 
2.500000000000e-002 1.962073380932e-010 1.929228348491e-015 
5.000000000000e-002 1.963264902079e-010 1.632303245466e-015 
7.500000000000e-002 2.026895230845e-010 -2.569545504150e-015 
1.000000000000e-001 2.032011750103e-010 -4.576276471438e-015 
1.250000000000e-001 1.724057620530e-010 -2.156065889124e-015 
1.500000000000e-001 1.357716665738e-010 -1.119147612017e-015 
1.750000000000e-001 1.259425061565e-010 -2.693891030623e-015 
2.000000000000e-001 1.307565828624e-010 -4.084369684501e-015 
2.250000000000e-001 1.411068732583e-010 -6.011595318717e-015 
2.500000000000e-001 1.524615364844e-010 -8.837451637306e-015 
2.750000000000e-001 1.503029920902e-010 -9.212036965012e-015 
3.000000000000e-001 1.406288970178e-010 -5.174789173265e-015 
3.250000000000e-001 1.422428004005e-010 -4.164341600412e-016 
3.500000000000e-001 1.503870957506e-010 -2.404111283900e-015 
3.750000000000e-001 1.574139584511e-010 -1.180626899606e-014 
4.000000000000e-001 1.513673485220e-010 -2.441067842813e-014 
4.250000000000e-001 1.494849925207e-010 -3.976266839041e-014 
4.500000000000e-001 1.780135340306e-010 -6.254039978189e-014 
4.750000000000e-001 2.134775414664e-010 -1.112510923460e-013 
5.000000000000e-001 2.283976958426e-010 -2.081672560541e-013 
5.250000000000e-001 2.265138876011e-010 -3.704516870800e-013 
5.500000000000e-001 2.222966081447e-010 -6.771160895301e-013 
5.750000000000e-001 2.142583136428e-010 -1.430515120850e-012 
6.000000000000e-001 1.763499577220e-010 1.103515579082e-009 
 ZONE T="TIME=7.500000000000e+002"
0.000000000000e+000 1.982665922995e-010 6.290455096119e-016 
2.500000000000e-002 1.969582556948e-010 1.549295145740e-015 
5.000000000000e-002 1.967602433089e-010 1.362928576001e-015 
7.500000000000e-002 2.027012924593e-010 -1.669089345119e-015 
1.000000000000e-001 2.025192224756e-010 -2.344661114743e-015 
1.250000000000e-001 1.720858303572e-010 3.433808692316e-016 
1.500000000000e-001 1.366155954000e-010 6.421993169090e-016 
1.750000000000e-001 1.274518489412e-010 -1.876379055947e-015 
2.000000000000e-001 1.323006180080e-010 -3.942862542022e-015 
2.250000000000e-001 1.420602183217e-010 -5.985947802581e-015 
2.500000000000e-001 1.520637214822e-010 -8.419696872085e-015 
2.750000000000e-001 1.489365093554e-010 -8.869076558182e-015 
3.000000000000e-001 1.394900817798e-010 -6.132272127660e-015 
3.250000000000e-001 1.419563852142e-010 -2.916246476861e-015 
3.500000000000e-001 1.507994050776e-010 -4.892750995880e-015 
3.750000000000e-001 1.580749959860e-010 -1.274458484231e-014 
4.000000000000e-001 1.524013673887e-010 -2.379114442248e-014 
4.250000000000e-001 1.506596823755e-010 -3.831740718139e-014 
4.500000000000e-001 1.785054468913e-010 -5.950065377821e-014 
4.750000000000e-001 2.137313623167e-010 -1.021106958879e-013 
5.000000000000e-001 2.292003948609e-010 -1.857113372713e-013 
5.250000000000e-001 2.274818113390e-010 -3.265015083252e-013 
5.500000000000e-001 2.229448963068e-010 -5.942724190323e-013 
5.750000000000e-001 2.147095411231e-010 -1.253878673202e-012 
6.000000000000e-001 1.784441249839e-010 1.030895778308e-009 
 ZONE T="TIME=8.000000000000e+002"
0.000000000000e+000 1.986991150299e-010 4.754655882241e-016 
2.500000000000e-002 1.972375815049e-010 1.283751233543e-015 
5.000000000000e-002 1.968704929950e-010 1.129262630869e-015 
7.500000000000e-002 2.026180582312e-010 -1.559610948229e-015 
1.000000000000e-001 2.021889396647e-010 -2.152449046125e-015 
1.250000000000e-001 1.720248075448e-010 3.175306034000e-016 
1.500000000000e-001 1.371906997740e-010 6.201081387728e-016 
1.750000000000e-001 1.284307399824e-010 -1.761966771426e-015 
2.000000000000e-001 1.333700693645e-010 -3.876609277871e-015 
2.250000000000e-001 1.428989023107e-010 -6.047135403123e-015 
2.500000000000e-001 1.523010309287e-010 -8.572315151309e-015 
2.750000000000e-001 1.486949834324e-010 -9.171795621547e-015 
3.000000000000e-001 1.392695262278e-010 -6.704270049441e-015 
3.250000000000e-001 1.420403954479e-010 -3.751618575078e-015 
3.500000000000e-001 1.511462395581e-010 -5.597924925992e-015 
3.750000000000e-001 1.585254169582e-010 -1.289352887370e-014 
4.000000000000e-001 1.530012754369e-010 -2.317650627291e-014 
4.250000000000e-001 1.512680147092e-010 -3.660691156723e-014 
4.500000000000e-001 1.787179877220e-010 -5.602861638964e-014 
4.750000000000e-001 2.136987494630e-010 -9.521118346585e-014 
5.000000000000e-001 2.292825063208e-010 -1.723720856494e-013 
5.250000000000e-001 2.275666990110e-010 -3.022439220278e-013 
5.500000000000e-001 2.228785713078e-010 -5.488656586201e-013 
5.750000000000e-001 2.146409005508e-010 -1.156611839774e-012 
6.000000000000e-001 1.794428019680e-010 9.916497709846e-010 
 ZONE T="TIME=8.500000000000e+002"
0.000000000000e+000 1.984706253688e-010 3.421592459896e-016 
2.500000000000e-002 1.969853156993e-010 1.079518246881e-015 
5.000000000000e-002 1.965767885382e-010 8.404975974726e-016 
7.500000000000e-002 2.022993709827e-010 -2.032549086545e-015 
1.000000000000e-001 2.019182198195e-010 -3.157016931014e-015 
1.250000000000e-001 1.719363728067e-010 -1.089257542908e-015 
1.500000000000e-001 1.373427554206e-010 -4.673351936690e-016 
1.750000000000e-001 1.287645940403e-010 -2.232636454081e-015 
2.000000000000e-001 1.337977385477e-010 -4.049935753980e-015 
2.250000000000e-001 1.433254115886e-010 -6.292611825367e-015 
2.500000000000e-001 1.526461815616e-010 -9.085888743578e-015 
2.750000000000e-001 1.489243921957e-010 -9.787137774565e-015 
3.000000000000e-001 1.394021896268e-010 -6.965001693261e-015 
3.250000000000e-001 1.421026699204e-010 -3.513303450682e-015 
3.500000000000e-001 1.511569127511e-010 -5.105483452839e-015 
3.750000000000e-001 1.585120921264e-010 -1.233754670789e-014 
4.000000000000e-001 1.529711002905e-010 -2.230333289083e-014 
4.250000000000e-001 1.511605642911e-010 -3.471077525742e-014 
4.500000000000e-001 1.784153801441e-010 -5.268853534615e-014 
4.750000000000e-001 2.131706942925e-010 -9.043702900598e-014 
5.000000000000e-001 2.286217364502e-010 -1.657407113849e-013 
5.250000000000e-001 2.268623243322e-010 -2.920198544843e-013 
5.500000000000e-001 2.221896628651e-010 -5.305036171829e-013 
5.750000000000e-001 2.140912355430e-010 -1.117430144073e-012 
6.000000000000e-001 1.794841044441e-010 9.761805169494e-010 
 ZONE T="TIME=9.000000000000e+002"
0.000000000000e+000 1.962152282895e-010 2.934128259869e-016 
2.500000000000e-002 1.945169074429e-010 8.923146001271e-016 
5.000000000000e-002 1.938944266440e-010 7.085225147337e-016 
7.500000000000e-002 1.992184609177e-010 -1.365212176268e-015 
1.000000000000e-001 1.982909733162e-010 -1.505940369799e-015 
1.250000000000e-001 1.689972384300e-010 7.623603588910e-016 
1.500000000000e-001 1.357702069796e-010 8.087438372204e-016 
1.750000000000e-001 1.277887722451e-010 -1.598668996314e-015 
2.000000000000e-001 1.327473539020e-010 -3.741242141629e-015 
2.250000000000e-001 1.416769662347e-010 -5.828595563807e-015 
2.500000000000e-001 1.498400828137e-010 -8.070473447286e-015 
2.750000000000e-001 1.454707349991e-010 -8.639428743021e-015 
3.000000000000e-001 1.363186671353e-010 -6.735814810590e-015 
3.250000000000e-001 1.396894478080e-010 -4.437384754628e-015 
3.500000000000e-001 1.491944737067e-010 -5.966633841094e-015 
3.750000000000e-001 1.566609167928e-010 -1.189879910634e-014 
4.000000000000e-001 1.515159580605e-010 -2.053131725175e-014 
4.250000000000e-001 1.498919659147e-010 -3.226904861824e-014 
4.500000000000e-001 1.763158733292e-010 -4.908356475339e-014 
4.750000000000e-001 2.105265596857e-010 -8.201571041006e-014 
5.000000000000e-001 2.263206281996e-010 -1.465356013687e-013 
5.250000000000e-001 2.248110108378e-010 -2.554390117629e-013 
5.500000000000e-001 2.200141264815e-010 -4.627298671963e-013 