 TITLE = "Profiles along polylines"
 VARIABLES = "DIST" "VELOCITY_X2" "VELOCITY_Y2" 
 ZONE T="TIME=0.000000000000e+00"
0.000000000000e+00 0.000000000000e+00 0.000000000000e+00 
2.500000000000e-02 0.000000000000e+00 0.000000000000e+00 
5.000000000000e-02 0.000000000000e+00 0.000000000000e+00 
7.500000000000e-02 0.000000000000e+00 0.000000000000e+00 
1.000000000000e-01 0.000000000000e+00 0.000000000000e+00 
1.250000000000e-01 0.000000000000e+00 0.000000000000e+00 
1.500000000000e-01 0.000000000000e+00 0.000000000000e+00 
1.750000000000e-01 0.000000000000e+00 0.000000000000e+00 
2.000000000000e-01 0.000000000000e+00 0.000000000000e+00 
2.250000000000e-01 0.000000000000e+00 0.000000000000e+00 
2.500000000000e-01 0.000000000000e+00 0.000000000000e+00 
2.750000000000e-01 0.000000000000e+00 0.000000000000e+00 
3.000000000000e-01 0.000000000000e+00 0.000000000000e+00 
3.250000000000e-01 0.000000000000e+00 0.000000000000e+00 
3.500000000000e-01 0.000000000000e+00 0.000000000000e+00 
3.750000000000e-01 0.000000000000e+00 0.000000000000e+00 
4.000000000000e-01 0.000000000000e+00 0.000000000000e+00 
4.250000000000e-01 0.000000000000e+00 0.000000000000e+00 
4.500000000000e-01 0.000000000000e+00 0.000000000000e+00 
4.750000000000e-01 0.000000000000e+00 0.000000000000e+00 
5.000000000000e-01 0.000000000000e+00 0.000000000000e+00 
5.250000000000e-01 0.000000000000e+00 0.000000000000e+00 
5.500000000000e-01 0.000000000000e+00 0.000000000000e+00 
5.750000000000e-01 0.000000000000e+00 0.000000000000e+00 
6.000000000000e-01 0.000000000000e+00 0.000000000000e+00 
 TITLE = "Profiles along polylines"
 VARIABLES = "DIST" "VELOCITY_X2" "VELOCITY_Y2" 
 ZONE T="TIME=5.000000000000e+01"
0.000000000000e+00 -1.312727717336e-10 -4.449876989048e-13 
2.500000000000e-02 -1.084261100798e-10 -7.476703788688e-13 
5.000000000000e-02 -5.913136433863e-11 -1.065397681628e-12 
7.500000000000e-02 -2.057895288670e-11 -9.326457022489e-13 
1.000000000000e-01 -3.941788183469e-12 -6.207212770918e-13 
1.250000000000e-01 1.880742338589e-11 -2.674983718041e-13 
1.500000000000e-01 4.105307911506e-11 4.231921874892e-14 
1.750000000000e-01 6.351139253966e-11 1.785441322867e-13 
2.000000000000e-01 1.136697868209e-10 1.822767116807e-13 
2.250000000000e-01 1.507802626369e-10 2.558190022040e-13 
2.500000000000e-01 1.597782251695e-10 5.453895056971e-13 
2.750000000000e-01 1.821273042760e-10 1.001041646118e-12 
3.000000000000e-01 2.354620069067e-10 1.380184977991e-12 
3.250000000000e-01 3.610432231095e-10 1.408757520409e-12 
3.500000000000e-01 4.917107890189e-10 1.159187277274e-12 
3.750000000000e-01 5.119458347174e-10 8.947327383548e-13 
4.000000000000e-01 4.169982481639e-10 5.729420920896e-13 
4.250000000000e-01 2.284635143818e-10 2.453696867454e-13 
4.500000000000e-01 9.689599097208e-11 8.567732507515e-14 
4.750000000000e-01 4.004626759344e-11 -2.906863385990e-13 
5.000000000000e-01 -3.937273980025e-11 -1.203010241573e-12 
5.250000000000e-01 -8.633728528316e-11 -2.445542127410e-12 
5.500000000000e-01 -1.074715229200e-10 -4.443316140851e-12 
5.750000000000e-01 -9.759160777692e-11 -9.344596877537e-12 
6.000000000000e-01 -2.784030115087e-11 4.516513731513e-09 
 ZONE T="TIME=1.000000000000e+02"
0.000000000000e+00 -1.681470971788e-10 -1.517192219323e-13 
2.500000000000e-02 -1.439937272532e-10 -2.773868364723e-13 
5.000000000000e-02 -9.429129165011e-11 -4.441216504497e-13 
7.500000000000e-02 -5.807216216498e-11 -4.430331815373e-13 
1.000000000000e-01 -4.236992727522e-11 -3.283638299118e-13 
1.250000000000e-01 -2.424436556043e-11 -1.732202633070e-13 
1.500000000000e-01 -9.900956794823e-12 -2.207187117902e-14 
1.750000000000e-01 3.896179760767e-12 8.215663605229e-14 
2.000000000000e-01 4.104869065888e-11 1.463826661355e-13 
2.250000000000e-01 7.214489598696e-11 2.265047450552e-13 
2.500000000000e-01 8.340558149676e-11 3.599352218254e-13 
2.750000000000e-01 1.030134025225e-10 5.262524872082e-13 
3.000000000000e-01 1.432344459668e-10 6.418502755105e-13 
3.250000000000e-01 2.336667977866e-10 6.239268587318e-13 
3.500000000000e-01 3.285092516229e-10 5.187360975856e-13 
3.750000000000e-01 3.447269899936e-10 4.013169806401e-13 
4.000000000000e-01 2.746901772552e-10 2.322170497862e-13 
4.250000000000e-01 1.359489810460e-10 2.134390200857e-14 
4.500000000000e-01 3.544842126837e-11 -1.754659300767e-13 
4.750000000000e-01 -1.608515584186e-11 -4.863686356829e-13 
5.000000000000e-01 -7.975461663114e-11 -1.071178164043e-12 
5.250000000000e-01 -1.120969024248e-10 -2.006710857994e-12 
5.500000000000e-01 -1.273504670170e-10 -3.745233663123e-12 
5.750000000000e-01 -1.186793476129e-10 -7.837953410631e-12 
6.000000000000e-01 -5.571260348129e-11 3.793290547281e-09 
 ZONE T="TIME=1.500000000000e+02"
0.000000000000e+00 -1.622606937771e-10 -4.756813727379e-14 
2.500000000000e-02 -1.410018278501e-10 -9.471010062879e-14 
5.000000000000e-02 -9.838099875853e-11 -1.671040991415e-13 
7.500000000000e-02 -6.868831437001e-11 -1.820493885178e-13 
1.000000000000e-01 -5.583358436504e-11 -1.440808847408e-13 
1.250000000000e-01 -4.208530125463e-11 -8.461282689914e-14 
1.500000000000e-01 -3.278550277561e-11 -2.108111787536e-14 
1.750000000000e-01 -2.419726839962e-11 3.493832650435e-14 
2.000000000000e-01 2.751847133468e-12 8.083561341690e-14 
2.250000000000e-01 2.771195747561e-11 1.259095071533e-13 
2.500000000000e-01 3.927405684253e-11 1.768014021165e-13 
2.750000000000e-01 5.557110372212e-11 2.286540458380e-13 
3.000000000000e-01 8.469626853386e-11 2.569832173312e-13 
3.250000000000e-01 1.478142833085e-10 2.371675743727e-13 
3.500000000000e-01 2.145921549732e-10 1.897741040325e-13 
3.750000000000e-01 2.264972751717e-10 1.337586122079e-13 
4.000000000000e-01 1.752961083164e-10 4.287819930658e-14 
4.250000000000e-01 7.511588951647e-11 -8.267048133660e-14 
4.500000000000e-01 1.092388179378e-12 -2.235808752107e-13 
4.750000000000e-01 -4.165105162227e-11 -4.355839631053e-13 
5.000000000000e-01 -9.095016866649e-11 -8.089401450793e-13 
5.250000000000e-01 -1.124129449194e-10 -1.445575207232e-12 
5.500000000000e-01 -1.224115008207e-10 -2.697551674145e-12 
5.750000000000e-01 -1.140479576904e-10 -5.648937870744e-12 
6.000000000000e-01 -5.934120899127e-11 3.156015839642e-09 
 ZONE T="TIME=2.000000000000e+02"
0.000000000000e+00 -1.457039462002e-10 -2.097483804311e-14 
2.500000000000e-02 -1.274796082946e-10 -4.385520805368e-14 
5.000000000000e-02 -9.150465760521e-11 -8.115872926245e-14 
7.500000000000e-02 -6.716671904455e-11 -9.184875422684e-14 
1.000000000000e-01 -5.666966511894e-11 -7.489868509350e-14 
1.250000000000e-01 -4.579613179539e-11 -4.648654419282e-14 
1.500000000000e-01 -3.912792285656e-11 -1.485022096498e-14 
1.750000000000e-01 -3.316707207957e-11 1.574247756369e-14 
2.000000000000e-01 -1.242616850953e-11 4.234391046033e-14 
2.250000000000e-01 8.042525194857e-12 6.616752427727e-14 
2.500000000000e-01 1.876625812804e-11 8.900796994328e-14 
2.750000000000e-01 3.232487518849e-11 1.098163961671e-13 
3.000000000000e-01 5.447089597717e-11 1.180669739691e-13 
3.250000000000e-01 1.016127168014e-10 1.021480957343e-13 
3.500000000000e-01 1.520318290056e-10 7.252506297074e-14 
3.750000000000e-01 1.611861918228e-10 3.626060557920e-14 
4.000000000000e-01 1.209902174634e-10 -2.429433312910e-14 
4.250000000000e-01 4.332952318095e-11 -1.105407904915e-13 
4.500000000000e-01 -1.450188795730e-11 -2.138286659168e-13 
4.750000000000e-01 -5.056613687005e-11 -3.709253402220e-13 
5.000000000000e-01 -9.078649669832e-11 -6.453546537321e-13 
5.250000000000e-01 -1.061627745806e-10 -1.124136001660e-12 
5.500000000000e-01 -1.130390210263e-10 -2.086826168146e-12 
5.750000000000e-01 -1.047030930928e-10 -4.370420853793e-12 
6.000000000000e-01 -5.556319233554e-11 2.763348290198e-09 
 ZONE T="TIME=2.500000000000e+02"
0.000000000000e+00 -1.276309338101e-10 -1.094873112184e-14 
2.500000000000e-02 -1.121090352258e-10 -2.359673687019e-14 
5.000000000000e-02 -8.179227969945e-11 -4.492039396600e-14 
7.500000000000e-02 -6.168861464011e-11 -5.208499578808e-14 
1.000000000000e-01 -5.300310241388e-11 -4.360918295482e-14 
1.250000000000e-01 -4.418128376909e-11 -2.868007113947e-14 
1.500000000000e-01 -3.911557764939e-11 -1.174045982424e-14 
1.750000000000e-01 -3.469283516037e-11 5.303926706543e-15 
2.000000000000e-01 -1.826803729800e-11 2.027708911384e-14 
2.250000000000e-01 -1.351348302049e-12 3.286157841664e-14 
2.500000000000e-01 8.211290965086e-12 4.382349313686e-14 
2.750000000000e-01 1.956295199268e-11 5.307007426209e-14 
3.000000000000e-01 3.699754530374e-11 5.484375720540e-14 
3.250000000000e-01 7.367906761781e-11 4.236011883325e-14 
3.500000000000e-01 1.132768630759e-10 2.149992407982e-14 
3.750000000000e-01 1.205631143473e-10 -4.666715182061e-15 
4.000000000000e-01 8.793874285759e-11 -4.842134230309e-14 
4.250000000000e-01 2.544925544023e-11 -1.115464525935e-13 
4.500000000000e-01 -2.135093719209e-11 -1.903208503910e-13 
4.750000000000e-01 -5.225838404631e-11 -3.117562891606e-13 
5.000000000000e-01 -8.608136384170e-11 -5.236576057046e-13 
5.250000000000e-01 -9.780879475179e-11 -8.986258900408e-13 
5.500000000000e-01 -1.028936803769e-10 -1.663316842220e-12 
5.750000000000e-01 -9.485390699053e-11 -3.486340100000e-12 
6.000000000000e-01 -5.036968526839e-11 2.463370581557e-09 
 ZONE T="TIME=3.000000000000e+02"
0.000000000000e+00 -1.105081780404e-10 -6.221137927083e-15 
2.500000000000e-02 -9.731061945234e-11 -1.372418994509e-14 
5.000000000000e-02 -7.172319824224e-11 -2.672475576240e-14 
7.500000000000e-02 -5.497175463661e-11 -3.171292741440e-14 
1.000000000000e-01 -4.767039474510e-11 -2.742545517713e-14 
1.250000000000e-01 -4.034338179340e-11 -1.934297781590e-14 
1.500000000000e-01 -3.627662059231e-11 -1.002390281870e-14 
1.750000000000e-01 -3.274948245926e-11 -3.985342396212e-16 
2.000000000000e-01 -1.939846758579e-11 8.017767088101e-15 
2.250000000000e-01 -5.257946961741e-12 1.464899453975e-14 
2.500000000000e-01 3.175754261115e-12 1.991371151040e-14 
2.750000000000e-01 1.283423985972e-11 2.396636975011e-14 
3.000000000000e-01 2.706977090802e-11 2.325928189758e-14 
3.250000000000e-01 5.669878149648e-11 1.341187242972e-14 
3.500000000000e-01 8.884474680463e-11 -2.067369291804e-15 
3.750000000000e-01 9.480496228502e-11 -2.186239811192e-14 
4.000000000000e-01 6.764831288919e-11 -5.486771767308e-14 
4.250000000000e-01 1.584266268778e-11 -1.029018480661e-13 
4.500000000000e-01 -2.318282199980e-11 -1.647792868614e-13 
4.750000000000e-01 -5.005544308449e-11 -2.611974671060e-13 
5.000000000000e-01 -7.920119685091e-11 -4.293999923269e-13 
5.250000000000e-01 -8.876500343875e-11 -7.301758625706e-13 
5.500000000000e-01 -9.290073911158e-11 -1.349964680367e-12 
5.750000000000e-01 -8.537987919933e-11 -2.833107471984e-12 
6.000000000000e-01 -4.500906292246e-11 2.218505540984e-09 
 ZONE T="TIME=3.500000000000e+02"
0.000000000000e+00 -9.477149757325e-11 -3.433738840959e-15 
2.500000000000e-02 -8.360694410249e-11 -7.874870961672e-15 
5.000000000000e-02 -6.208425451378e-11 -1.589551932343e-14 
7.500000000000e-02 -4.811511899343e-11 -1.952364168615e-14 
1.000000000000e-01 -4.193780247838e-11 -1.763937389934e-14 
1.250000000000e-01 -3.579297971324e-11 -1.350521093868e-14 
1.500000000000e-01 -3.242804308961e-11 -8.584227372002e-15 
1.750000000000e-01 -2.948540271978e-11 -3.267516457549e-15 
2.000000000000e-01 -1.850860712415e-11 1.384388852150e-15 
2.250000000000e-01 -6.646510018199e-12 4.715709902732e-15 
2.500000000000e-01 7.508718833071e-13 6.888778734834e-15 
2.750000000000e-01 9.039838714961e-12 8.122020287892e-15 
3.000000000000e-01 2.089791749051e-11 6.236750010483e-15 
3.250000000000e-01 4.527490108773e-11 -1.570974570109e-15 
3.500000000000e-01 7.175304111451e-11 -1.316597112161e-14 
3.750000000000e-01 7.667503693619e-11 -2.825718148741e-14 
4.000000000000e-01 5.384712270885e-11 -5.341086280167e-14 
4.250000000000e-01 1.033901511705e-11 -9.036881843370e-14 
4.500000000000e-01 -2.266545901245e-11 -1.394280833569e-13 
4.750000000000e-01 -4.616171138836e-11 -2.164270677256e-13 
5.000000000000e-01 -7.154249620370e-11 -3.505040936092e-13 
5.250000000000e-01 -7.967261533154e-11 -5.925839030466e-13 
5.500000000000e-01 -8.327010180583e-11 -1.096125767745e-12 
5.750000000000e-01 -7.639142777839e-11 -2.304681356384e-12 
6.000000000000e-01 -3.986754581268e-11 1.999899017012e-09 
 ZONE T="TIME=4.000000000000e+02"
0.000000000000e+00 -8.134753910971e-11 -2.248269452674e-15 
2.500000000000e-02 -7.182459996341e-11 -5.196560832088e-15 
5.000000000000e-02 -5.352022169656e-11 -1.060292243741e-14 
7.500000000000e-02 -4.166943477547e-11 -1.326784887790e-14 
1.000000000000e-01 -3.633387614996e-11 -1.241943261532e-14 
1.250000000000e-01 -3.102243132287e-11 -1.016298006356e-14 
1.500000000000e-01 -2.804866953000e-11 -7.413283480096e-15 
1.750000000000e-01 -2.538050713166e-11 -4.388341410028e-15 
2.000000000000e-01 -1.600345360786e-11 -1.827865709677e-15 
2.250000000000e-01 -5.826525628582e-12 -2.214282337444e-16 
2.500000000000e-01 6.856506280670e-13 5.546450854938e-16 
2.750000000000e-01 7.961717543342e-12 6.895808146191e-16 
3.000000000000e-01 1.827513732898e-11 -1.376715450106e-15 
3.250000000000e-01 3.929116319300e-11 -7.731189435163e-15 
3.500000000000e-01 6.203934103870e-11 -1.697695970842e-14 
3.750000000000e-01 6.622946507851e-11 -2.913792307876e-14 
4.000000000000e-01 4.638092067095e-11 -4.930905313815e-14 
4.250000000000e-01 8.467955161512e-12 -7.905426712998e-14 
4.500000000000e-01 -2.044391157090e-11 -1.192188257538e-13 
4.750000000000e-01 -4.136702122929e-11 -1.826688376619e-13 
5.000000000000e-01 -6.405085612468e-11 -2.932411071992e-13 
5.250000000000e-01 -7.142529108404e-11 -4.938910884399e-13 
5.500000000000e-01 -7.481088158701e-11 -9.133435889486e-13 
5.750000000000e-01 -6.855388481264e-11 -1.922200191650e-12 
6.000000000000e-01 -3.523117183495e-11 1.826431756269e-09 
 ZONE T="TIME=4.500000000000e+02"
0.000000000000e+00 -6.991884918543e-11 -1.591893247294e-15 
2.500000000000e-02 -6.174755997708e-11 -3.685646735406e-15 
5.000000000000e-02 -4.605561723202e-11 -7.564477704260e-15 
7.500000000000e-02 -3.587765912705e-11 -9.609006581986e-15 
1.000000000000e-01 -3.120568077080e-11 -9.279007804480e-15 
1.250000000000e-01 -2.652691318800e-11 -8.019455830162e-15 
1.500000000000e-01 -2.379816181297e-11 -6.443054475998e-15 
1.750000000000e-01 -2.126559424500e-11 -4.689542645580e-15 
2.000000000000e-01 -1.303753474894e-11 -3.288497750789e-15 
2.250000000000e-01 -4.158268681157e-12 -2.593862227761e-15 
2.500000000000e-01 1.607849221849e-12 -2.505687298209e-15 
2.750000000000e-01 8.115675209889e-12 -2.873083802832e-15 
3.000000000000e-01 1.738514122848e-11 -4.884322687454e-15 
3.250000000000e-01 3.613067427158e-11 -1.017515133020e-14 
3.500000000000e-01 5.627815242377e-11 -1.776636394165e-14 
3.750000000000e-01 5.994968175134e-11 -2.781790357962e-14 
4.000000000000e-01 4.233150574404e-11 -4.442773109457e-14 
4.250000000000e-01 8.488362886403e-12 -6.899186815236e-14 
4.500000000000e-01 -1.744323301808e-11 -1.025763290695e-13 
4.750000000000e-01 -3.629684419936e-11 -1.558608687951e-13 
5.000000000000e-01 -5.691113167793e-11 -2.487612528905e-13 
5.250000000000e-01 -6.390446627739e-11 -4.179362610248e-13 
5.500000000000e-01 -6.726642933922e-11 -7.728138906163e-13 
5.750000000000e-01 -6.161775099125e-11 -1.627632762007e-12 
6.000000000000e-01 -3.107766196928e-11 1.680319867990e-09 
 ZONE T="TIME=5.000000000000e+02"
0.000000000000e+00 -6.014646181531e-11 -1.093403001237e-15 
2.500000000000e-02 -5.311451055906e-11 -2.583674254988e-15 
5.000000000000e-02 -3.960967953536e-11 -5.411524245294e-15 
7.500000000000e-02 -3.081397120608e-11 -7.038016722924e-15 
1.000000000000e-01 -2.669236773212e-11 -7.028244749000e-15 
1.250000000000e-01 -2.253549774086e-11 -6.390888263048e-15 
1.500000000000e-01 -1.999756791319e-11 -5.540250898622e-15 
1.750000000000e-01 -1.755908039964e-11 -4.549627339056e-15 
2.000000000000e-01 -1.024998884969e-11 -3.811932571469e-15 
2.250000000000e-01 -2.436239056668e-12 -3.621610668426e-15 
2.500000000000e-01 2.695828691258e-12 -3.930355924437e-15 
2.750000000000e-01 8.578150633908e-12 -4.615622815423e-15 
3.000000000000e-01 1.704110902217e-11 -6.562500992647e-15 
3.250000000000e-01 3.401220857766e-11 -1.102250405370e-14 
3.500000000000e-01 5.208569313357e-11 -1.727972122857e-14 
3.750000000000e-01 5.534272416170e-11 -2.560748256776e-14 
4.000000000000e-01 3.958017517622e-11 -3.935654361513e-14 
4.250000000000e-01 9.077907766699e-12 -5.977835356578e-14 
4.500000000000e-01 -1.441589935527e-11 -8.805122734655e-14 
4.750000000000e-01 -3.149667186955e-11 -1.330117438341e-13 
5.000000000000e-01 -5.035275574367e-11 -2.113307111545e-13 
5.250000000000e-01 -5.708906125104e-11 -3.544750139234e-13 
5.500000000000e-01 -6.047829128393e-11 -6.558080794855e-13 
5.750000000000e-01 -5.541257011167e-11 -1.382523679440e-12 
6.000000000000e-01 -2.741086782596e-11 1.548060445422e-09 
 ZONE T="TIME=5.500000000000e+02"
0.000000000000e+00 -5.187547068186e-11 -7.420452224157e-16 
2.500000000000e-02 -4.579698816279e-11 -1.811881884776e-15 
5.000000000000e-02 -3.411330103465e-11 -3.904844999960e-15 
7.500000000000e-02 -2.645768015045e-11 -5.219404556096e-15 
1.000000000000e-01 -2.279242154416e-11 -5.387476812651e-15 
1.250000000000e-01 -1.906559661589e-11 -5.126132648309e-15 
1.500000000000e-01 -1.667757673645e-11 -4.718126999842e-15 
1.750000000000e-01 -1.430714364511e-11 -4.190814939895e-15 
2.000000000000e-01 -7.739513109527e-12 -3.843166359014e-15 
2.250000000000e-01 -8.039055501701e-13 -3.933791430493e-15 
2.500000000000e-01 3.788988659441e-12 -4.459232288650e-15 
2.750000000000e-01 9.151397098967e-12 -5.318903713806e-15 
3.000000000000e-01 1.696706670578e-11 -7.168494476668e-15 
3.250000000000e-01 3.251038487068e-11 -1.096227423670e-14 
3.500000000000e-01 4.889335924183e-11 -1.615774372062e-14 
3.750000000000e-01 5.180582656611e-11 -2.309486133003e-14 
4.000000000000e-01 3.759056519942e-11 -3.454922664530e-14 
4.250000000000e-01 9.864379590720e-12 -5.163804757661e-14 
4.500000000000e-01 -1.160117279481e-11 -7.555925700150e-14 
4.750000000000e-01 -2.715577715973e-11 -1.136503776223e-13 
5.000000000000e-01 -4.449837411383e-11 -1.799243980464e-13 
5.250000000000e-01 -5.103372307764e-11 -3.014483856595e-13 
5.500000000000e-01 -5.445529929873e-11 -5.580681250378e-13 
5.750000000000e-01 -4.992753036067e-11 -1.177572049265e-12 
6.000000000000e-01 -2.422966356417e-11 1.428292049156e-09 
 ZONE T="TIME=6.000000000000e+02"
0.000000000000e+00 -4.462646912237e-11 -4.188603944995e-16 
2.500000000000e-02 -3.939391723676e-11 -1.129168748588e-15 
5.000000000000e-02 -2.933240935643e-11 -2.612690158865e-15 
7.500000000000e-02 -2.270414428725e-11 -3.676506369143e-15 
1.000000000000e-01 -1.945889065748e-11 -3.971162404606e-15 
1.250000000000e-01 -1.614183015848e-11 -3.983519502777e-15 
1.500000000000e-01 -1.392894776486e-11 -3.892196849271e-15 
1.750000000000e-01 -1.166850217680e-11 -3.674182888690e-15 
2.000000000000e-01 -5.819304755758e-12 -3.560329046830e-15 
2.250000000000e-01 3.045094274246e-13 -3.808826279118e-15 
2.500000000000e-01 4.413214305168e-12 -4.474964416187e-15 
2.750000000000e-01 9.280685377290e-12 -5.477784190900e-15 
3.000000000000e-01 1.643391488163e-11 -7.256642305096e-15 
3.250000000000e-01 3.051530530853e-11 -1.047122396279e-14 
3.500000000000e-01 4.520723219174e-11 -1.470788138636e-14 
3.750000000000e-01 4.778348823625e-11 -2.038588930079e-14 
4.000000000000e-01 3.506941213542e-11 -2.978071782807e-14 
4.250000000000e-01 1.008912386366e-11 -4.388822024233e-14 
4.500000000000e-01 -9.372609569062e-12 -6.392716390233e-14 
4.750000000000e-01 -2.348476176150e-11 -9.584000958139e-14 
5.000000000000e-01 -3.933649566007e-11 -1.512012812139e-13 
5.250000000000e-01 -4.557995958618e-11 -2.531801245412e-13 
5.500000000000e-01 -4.896544859901e-11 -4.694748808245e-13 
5.750000000000e-01 -4.493750493020e-11 -9.921762505826e-13 
6.000000000000e-01 -2.145807184781e-11 1.310719094466e-09 
 ZONE T="TIME=6.500000000000e+02"
0.000000000000e+00 -3.887685089928e-11 -3.558506090914e-16 
2.500000000000e-02 -3.428259567204e-11 -9.364268465630e-16 
5.000000000000e-02 -2.542167518379e-11 -2.138942662251e-15 
7.500000000000e-02 -1.952516625883e-11 -3.007491723847e-15 
1.000000000000e-01 -1.658215193550e-11 -3.285937908571e-15 
1.250000000000e-01 -1.353349955234e-11 -3.359257803106e-15 
1.500000000000e-01 -1.139062522827e-11 -3.365333739570e-15 
1.750000000000e-01 -9.148156126093e-12 -3.291841958546e-15 
2.000000000000e-01 -3.725451936596e-12 -3.318548169297e-15 
2.250000000000e-01 1.838229533438e-12 -3.639861681059e-15 
2.500000000000e-01 5.550625603071e-12 -4.295458133782e-15 
2.750000000000e-01 1.005957326734e-11 -5.218199473971e-15 
3.000000000000e-01 1.682334017357e-11 -6.780859965538e-15 
3.250000000000e-01 3.009952125270e-11 -9.560862341531e-15 
3.500000000000e-01 4.381555771415e-11 -1.322405100150e-14 
3.750000000000e-01 4.617134055628e-11 -1.812648044675e-14 
4.000000000000e-01 3.439821381876e-11 -2.621592039663e-14 
4.250000000000e-01 1.110573013929e-11 -3.836126700712e-14 
4.500000000000e-01 -7.084234235444e-12 -5.563249182926e-14 
4.750000000000e-01 -2.012115949356e-11 -8.318166544539e-14 
5.000000000000e-01 -3.492965893486e-11 -1.310329348882e-13 
5.250000000000e-01 -4.106088145540e-11 -2.191773495050e-13 
5.500000000000e-01 -4.446465878397e-11 -4.061391757971e-13 
5.750000000000e-01 -4.084959753096e-11 -8.582016036778e-13 
6.000000000000e-01 -1.914674660627e-11 1.219332463820e-09 
 ZONE T="TIME=7.000000000000e+02"
0.000000000000e+00 -3.413382080284e-11 -2.471731452148e-16 
2.500000000000e-02 -3.007556526396e-11 -6.908279510379e-16 
5.000000000000e-02 -2.222992668384e-11 -1.641108952223e-15 
7.500000000000e-02 -1.696290830196e-11 -2.370542523333e-15 
1.000000000000e-01 -1.428424198609e-11 -2.651818056334e-15 
1.250000000000e-01 -1.148676115984e-11 -2.782896635765e-15 
1.500000000000e-01 -9.441911468419e-12 -2.866537121560e-15 
1.750000000000e-01 -7.260237508695e-12 -2.881417079018e-15 
2.000000000000e-01 -2.259924504882e-12 -2.971882176948e-15 
2.250000000000e-01 2.795842012479e-12 -3.311167381681e-15 
2.500000000000e-01 6.169392584839e-12 -3.950938109342e-15 
2.750000000000e-01 1.034714368906e-11 -4.836626969377e-15 
3.000000000000e-01 1.670449590490e-11 -6.256200177942e-15 
3.250000000000e-01 2.911772537704e-11 -8.663537154514e-15 
3.500000000000e-01 4.182617140094e-11 -1.177755766571e-14 
3.750000000000e-01 4.397183555966e-11 -1.594311932685e-14 
4.000000000000e-01 3.312975844612e-11 -2.282269778835e-14 
4.250000000000e-01 1.154458800407e-11 -3.318521869634e-14 
4.500000000000e-01 -5.377143297466e-12 -4.801484343512e-14 
4.750000000000e-01 -1.742660833327e-11 -7.166612810369e-14 
5.000000000000e-01 -3.121827061316e-11 -1.126955273702e-13 
5.250000000000e-01 -3.715934284968e-11 -1.884232053478e-13 
5.500000000000e-01 -4.053204064017e-11 -3.493531526428e-13 
5.750000000000e-01 -3.730150624125e-11 -7.386902798680e-13 
6.000000000000e-01 -1.727776425372e-11 1.131022088901e-09 
 ZONE T="TIME=7.500000000000e+02"
0.000000000000e+00 -3.018673135286e-11 -1.763851713028e-16 
2.500000000000e-02 -2.657351894680e-11 -5.240752217745e-16 
5.000000000000e-02 -1.956948736107e-11 -1.290411650166e-15 
7.500000000000e-02 -1.482446368416e-11 -1.907325297357e-15 
1.000000000000e-01 -1.236931577402e-11 -2.175697320345e-15 
1.250000000000e-01 -9.783316458465e-12 -2.332030429946e-15 
1.500000000000e-01 -7.823642182082e-12 -2.454640258402e-15 
1.750000000000e-01 -5.698694096554e-12 -2.518529553413e-15 
2.000000000000e-01 -1.049910352990e-12 -2.641686745497e-15 
2.250000000000e-01 3.582981240784e-12 -2.977611916078e-15 
2.500000000000e-01 6.669576314109e-12 -3.582904852930e-15 
2.750000000000e-01 1.056446741049e-11 -4.411919076345e-15 
3.000000000000e-01 1.657320823626e-11 -5.691029021385e-15 
3.250000000000e-01 2.825282150880e-11 -7.784908080037e-15 
3.500000000000e-01 4.010928526104e-11 -1.045328810521e-14 
3.750000000000e-01 4.207829073747e-11 -1.401779582426e-14 
4.000000000000e-01 3.203107739818e-11 -1.991014760662e-14 
4.250000000000e-01 1.191182502738e-11 -2.880917267272e-14 
4.500000000000e-01 -3.912485717068e-12 -4.160042884410e-14 
4.750000000000e-01 -1.509712267139e-11 -6.199931265348e-14 
5.000000000000e-01 -2.799276033776e-11 -9.735998819586e-14 
5.250000000000e-01 -3.375442046595e-11 -1.627113773010e-13 
5.500000000000e-01 -3.708770171761e-11 -3.017674775437e-13 
5.750000000000e-01 -3.420318442072e-11 -6.383406208749e-13 
6.000000000000e-01 -1.569526966167e-11 1.051345528897e-09 
 ZONE T="TIME=8.000000000000e+02"
0.000000000000e+00 -2.720755119361e-11 -2.037169676221e-16 
2.500000000000e-02 -2.390564667906e-11 -5.449747995038e-16 
5.000000000000e-02 -1.747111869346e-11 -1.260568055283e-15 
7.500000000000e-02 -1.305542459386e-11 -1.800401224616e-15 
1.000000000000e-01 -1.074338269198e-11 -2.018914830092e-15 
1.250000000000e-01 -8.271308673389e-12 -2.139015809929e-15 
1.500000000000e-01 -6.319285045633e-12 -2.236980439309e-15 
1.750000000000e-01 -4.177543155694e-12 -2.306409934720e-15 
2.000000000000e-01 3.231416288767e-13 -2.446175591023e-15 
2.250000000000e-01 4.708405641502e-12 -2.766254833884e-15 
2.500000000000e-01 7.577736919774e-12 -3.298292043413e-15 
2.750000000000e-01 1.130039899371e-11 -3.999126353659e-15 
3.000000000000e-01 1.717633030653e-11 -5.094967179271e-15 
3.250000000000e-01 2.860963441108e-11 -6.954888045852e-15 
3.500000000000e-01 4.013072319583e-11 -9.361626862193e-15 
3.750000000000e-01 4.201678870487e-11 -1.256051818144e-14 
4.000000000000e-01 3.239256444579e-11 -1.784266509380e-14 
4.250000000000e-01 1.300112933718e-11 -2.580595869936e-14 
4.500000000000e-01 -2.248393141263e-12 -3.717815215032e-14 
4.750000000000e-01 -1.282456802713e-11 -5.533515451751e-14 
5.000000000000e-01 -2.515484086286e-11 -8.689620786206e-14 
5.250000000000e-01 -3.090586374484e-11 -1.450877925516e-13 
5.500000000000e-01 -3.427484444931e-11 -2.686265017743e-13 
5.750000000000e-01 -3.168803532136e-11 -5.676471943722e-13 
6.000000000000e-01 -1.437256770194e-11 9.915968226353e-10 
 ZONE T="TIME=8.500000000000e+02"
0.000000000000e+00 -2.493423658199e-11 -2.050530645268e-16 
2.500000000000e-02 -2.186849387964e-11 -5.324811511820e-16 
5.000000000000e-02 -1.586464172985e-11 -1.205592202897e-15 
7.500000000000e-02 -1.169598571700e-11 -1.696065797764e-15 
1.000000000000e-01 -9.491563545051e-12 -1.881093057661e-15 
1.250000000000e-01 -7.108926947097e-12 -1.973846948882e-15 
1.500000000000e-01 -5.167789981741e-12 -2.049335720400e-15 
1.750000000000e-01 -3.019454713685e-12 -2.109278244026e-15 
2.000000000000e-01 1.360302221045e-12 -2.239746542794e-15 
2.250000000000e-01 5.550303913609e-12 -2.527708001187e-15 
2.500000000000e-01 8.249440749800e-12 -2.994614308167e-15 
2.750000000000e-01 1.183496094248e-11 -3.599714989355e-15 
3.000000000000e-01 1.760032121591e-11 -4.559316488340e-15 
3.250000000000e-01 2.881386569453e-11 -6.225979329517e-15 
3.500000000000e-01 4.003843162610e-11 -8.392779535468e-15 
3.750000000000e-01 4.185606782102e-11 -1.125910741972e-14 
4.000000000000e-01 3.260536073093e-11 -1.600247390056e-14 
4.250000000000e-01 1.386170149716e-11 -2.315896694779e-14 
4.500000000000e-01 -8.871996694479e-13 -3.334170156763e-14 
4.750000000000e-01 -1.094961176817e-11 -4.959849680787e-14 
5.000000000000e-01 -2.278348379736e-11 -7.788999852665e-14 
5.250000000000e-01 -2.850969883276e-11 -1.299893346715e-13 
5.500000000000e-01 -3.190441187526e-11 -2.404552126016e-13 
5.750000000000e-01 -2.959098236075e-11 -5.078226799990e-13 
6.000000000000e-01 -1.334530551009e-11 9.375869899983e-10 
 ZONE T="TIME=9.000000000000e+02"
0.000000000000e+00 -2.311391031188e-11 -1.732860580075e-16 
2.500000000000e-02 -2.024564825046e-11 -4.650574568368e-16 
5.000000000000e-02 -1.460901757149e-11 -1.073510632818e-15 
7.500000000000e-02 -1.066076702923e-11 -1.523191657593e-15 
1.000000000000e-01 -8.553345967161e-12 -1.692942310247e-15 
1.250000000000e-01 -6.262491937135e-12 -1.777997348481e-15 
1.500000000000e-01 -4.356417425152e-12 -1.846695789514e-15 
1.750000000000e-01 -2.233226633536e-12 -1.897917595812e-15 
2.000000000000e-01 1.996573775880e-12 -2.008979513956e-15 
2.250000000000e-01 5.995441950411e-12 -2.262416248585e-15 
2.500000000000e-01 8.550563147129e-12 -2.683548938061e-15 
2.750000000000e-01 1.199671620561e-11 -3.233925837743e-15 
3.000000000000e-01 1.759963533739e-11 -4.102026556669e-15 
3.250000000000e-01 2.846990667402e-11 -5.596762416525e-15 
3.500000000000e-01 3.928627783475e-11 -7.521228519283e-15 
3.750000000000e-01 4.101671585711e-11 -1.005789077502e-14 
4.000000000000e-01 3.217718014308e-11 -1.427479132979e-14 
4.250000000000e-01 1.419591510951e-11 -2.065677984251e-14 
4.500000000000e-01 2.216246422971e-14 -2.974136046433e-14 
4.750000000000e-01 -9.551983282334e-12 -4.423092227758e-14 
5.000000000000e-01 -2.086687482335e-11 -6.943648447143e-14 
5.250000000000e-01 -2.648834384350e-11 -1.158638186931e-13 
5.500000000000e-01 -2.985879149109e-11 -2.143141665580e-13 
5.750000000000e-01 -2.779231947734e-11 -4.526093284758e-13 
6.000000000000e-01 -1.256285053352e-11 8.846902299723e-10 
 ZONE T="TIME=9.500000000000e+02"
0.000000000000e+00 -2.143822362905e-11 -1.021208387552e-16 
2.500000000000e-02 -1.877120512877e-11 -3.258761806300e-16 
5.000000000000e-02 -1.352459053537e-11 -8.264801869914e-16 
7.500000000000e-02 -9.832543382518e-12 -1.231466059348e-15 
1.000000000000e-01 -7.840467051112e-12 -1.405173807765e-15 
1.250000000000e-01 -5.675597025168e-12 -1.508659641799e-15 
1.500000000000e-01 -3.853823007685e-12 -1.595037756050e-15 
1.750000000000e-01 -1.812425406449e-12 -1.649201120806e-15 
2.000000000000e-01 2.176891882554e-12 -1.741214082135e-15 
2.250000000000e-01 5.934915975592e-12 -1.965475245726e-15 
2.500000000000e-01 8.347842176712e-12 -2.364742950520e-15 
2.750000000000e-01 1.161539667179e-11 -2.904253271164e-15 
3.000000000000e-01 1.693537209868e-11 -3.722035544419e-15 
3.250000000000e-01 2.719550619105e-11 -5.048962629957e-15 
3.500000000000e-01 3.734665221251e-11 -6.704232183402e-15 
3.750000000000e-01 3.894714247165e-11 -8.882999259609e-15 