 TITLE = "Profiles along polylines"
 VARIABLES = "DIST" "VELOCITY_X2" "VELOCITY_Y2" 
 ZONE T="TIME=0.000000000000e+000"
0.000000000000e+000 0.000000000000e+000 0.000000000000e+000 
2.500000000000e-002 0.000000000000e+000 0.000000000000e+000 
5.000000000000e-002 0.000000000000e+000 0.000000000000e+000 
7.500000000000e-002 0.000000000000e+000 0.000000000000e+000 
1.000000000000e-001 0.000000000000e+000 0.000000000000e+000 
1.250000000000e-001 0.000000000000e+000 0.000000000000e+000 
1.500000000000e-001 0.000000000000e+000 0.000000000000e+000 
1.750000000000e-001 0.000000000000e+000 0.000000000000e+000 
2.000000000000e-001 0.000000000000e+000 0.000000000000e+000 
2.250000000000e-001 0.000000000000e+000 0.000000000000e+000 
2.500000000000e-001 0.000000000000e+000 0.000000000000e+000 
2.750000000000e-001 0.000000000000e+000 0.000000000000e+000 
3.000000000000e-001 0.000000000000e+000 0.000000000000e+000 
3.250000000000e-001 0.000000000000e+000 0.000000000000e+000 
3.500000000000e-001 0.000000000000e+000 0.000000000000e+000 
3.750000000000e-001 0.000000000000e+000 0.000000000000e+000 
4.000000000000e-001 0.000000000000e+000 0.000000000000e+000 
4.250000000000e-001 0.000000000000e+000 0.000000000000e+000 
4.500000000000e-001 0.000000000000e+000 0.000000000000e+000 
4.750000000000e-001 0.000000000000e+000 0.000000000000e+000 
5.000000000000e-001 0.000000000000e+000 0.000000000000e+000 
5.250000000000e-001 0.000000000000e+000 0.000000000000e+000 
5.500000000000e-001 0.000000000000e+000 0.000000000000e+000 
5.750000000000e-001 0.000000000000e+000 0.000000000000e+000 
6.000000000000e-001 0.000000000000e+000 0.000000000000e+000 
 TITLE = "Profiles along polylines"
 VARIABLES = "DIST" "VELOCITY_X2" "VELOCITY_Y2" 
 ZONE T="TIME=5.000000000000e+001"
0.000000000000e+000 1.401834421116e-011 -3.349710238834e-013 
2.500000000000e-002 -1.821861188009e-012 -4.518663630586e-013 
5.000000000000e-002 -1.441361552448e-011 -4.365813943922e-013 
7.500000000000e-002 -1.034418757051e-011 -1.414735221966e-013 
1.000000000000e-001 -1.142324418752e-011 3.265950514894e-013 
1.250000000000e-001 -2.310556114104e-011 9.518653901908e-013 
1.500000000000e-001 -4.627574988504e-011 1.258278147088e-012 
1.750000000000e-001 -7.987054233985e-011 1.094963140244e-012 
2.000000000000e-001 -1.255815137208e-010 7.163674961372e-013 
2.250000000000e-001 -1.376307472051e-010 2.556209643193e-013 
2.500000000000e-001 -1.085425757213e-010 -9.778580030740e-014 
2.750000000000e-001 -9.473888463690e-011 -1.891923929260e-013 
3.000000000000e-001 -8.140954555645e-011 -3.802330035776e-014 
3.250000000000e-001 -5.284555068333e-011 4.560465580601e-013 
3.500000000000e-001 -2.214909001452e-011 1.234014753294e-012 
3.750000000000e-001 3.065351071315e-012 1.788156454383e-012 
4.000000000000e-001 -2.029449151063e-011 1.934338559224e-012 
4.250000000000e-001 -1.073693884594e-010 1.913603855051e-012 
4.500000000000e-001 -2.034958742811e-010 1.815632593113e-012 
4.750000000000e-001 -2.849223772615e-010 1.418063502217e-012 
5.000000000000e-001 -3.083575872333e-010 2.904438478256e-013 
5.250000000000e-001 -2.388134688429e-010 -1.646978382003e-012 
5.500000000000e-001 -1.834807571498e-010 -4.163549980785e-012 
5.750000000000e-001 -1.757986786962e-010 -9.234418242483e-012 
6.000000000000e-001 -1.510470769936e-010 3.956002788030e-009 
 ZONE T="TIME=1.000000000000e+002"
0.000000000000e+000 -9.988348675604e-012 -1.527439334136e-013 
2.500000000000e-002 -2.069475914494e-011 -2.094602407254e-013 
5.000000000000e-002 -2.784553054038e-011 -1.983629892912e-013 
7.500000000000e-002 -2.364208209815e-011 -2.324627644037e-014 
1.000000000000e-001 -2.503381917151e-011 2.589650697921e-013 
1.250000000000e-001 -3.791821551114e-011 5.897047273444e-013 
1.500000000000e-001 -6.319369001410e-011 7.440764941393e-013 
1.750000000000e-001 -9.571539136267e-011 6.726480463372e-013 
2.000000000000e-001 -1.344501898562e-010 4.906385390537e-013 
2.250000000000e-001 -1.444020740600e-010 2.644140099037e-013 
2.500000000000e-001 -1.204308435942e-010 8.910290266128e-014 
2.750000000000e-001 -1.076515665910e-010 4.923686679879e-014 
3.000000000000e-001 -9.587650692275e-011 1.485414632951e-013 
3.250000000000e-001 -7.221485540689e-011 3.938456579090e-013 
3.500000000000e-001 -5.140409189749e-011 7.039698985292e-013 
3.750000000000e-001 -4.278605788426e-011 8.839514408227e-013 
4.000000000000e-001 -7.189058021578e-011 8.875500063914e-013 
4.250000000000e-001 -1.474339524432e-010 7.967499992380e-013 
4.500000000000e-001 -2.318178318575e-010 6.583494665035e-013 
4.750000000000e-001 -3.065756938083e-010 3.806651302700e-013 
5.000000000000e-001 -3.385554003964e-010 -2.609806520967e-013 
5.250000000000e-001 -2.929465984407e-010 -1.370419633804e-012 
5.500000000000e-001 -2.408020040887e-010 -3.030957876497e-012 
5.750000000000e-001 -2.234231434509e-010 -6.561493799363e-012 
6.000000000000e-001 -1.980700176856e-010 2.952494389198e-009 
 ZONE T="TIME=1.500000000000e+002"
0.000000000000e+000 -2.504759491875e-011 -6.861939923283e-014 
2.500000000000e-002 -3.268652612373e-011 -9.136436185151e-014 
5.000000000000e-002 -3.701780165440e-011 -7.582212168304e-014 
7.500000000000e-002 -3.332514415370e-011 2.477908081616e-014 
1.000000000000e-001 -3.492576180176e-011 1.817217457990e-013 
1.250000000000e-001 -4.817718637406e-011 3.551583612710e-013 
1.500000000000e-001 -7.431413057529e-011 4.398631302287e-013 
1.750000000000e-001 -1.057345544077e-010 4.162233104966e-013 
2.000000000000e-001 -1.403597503641e-010 3.345550488801e-013 
2.250000000000e-001 -1.496323242098e-010 2.247630717207e-013 
2.500000000000e-001 -1.291762993302e-010 1.359957412513e-013 
2.750000000000e-001 -1.172703942075e-010 1.167092370497e-013 
3.000000000000e-001 -1.064991297563e-010 1.706720606694e-013 
3.250000000000e-001 -8.566643821378e-011 2.838456573396e-013 
3.500000000000e-001 -7.027272402159e-011 4.016825984058e-013 
3.750000000000e-001 -7.070938805988e-011 4.492664745225e-013 
4.000000000000e-001 -1.028147730561e-010 4.177367890320e-013 
4.250000000000e-001 -1.720761365853e-010 3.394285158022e-013 
4.500000000000e-001 -2.503940370003e-010 2.366391275528e-013 
4.750000000000e-001 -3.220094084387e-010 4.977045730388e-014 
5.000000000000e-001 -3.579592773790e-010 -3.739754187215e-013 
5.250000000000e-001 -3.227143815918e-010 -1.126060481014e-012 
5.500000000000e-001 -2.706587723972e-010 -2.321200217077e-012 
5.750000000000e-001 -2.493312686269e-010 -4.951163707586e-012 
6.000000000000e-001 -2.264750037140e-010 2.496780678493e-009 
 ZONE T="TIME=2.000000000000e+002"
0.000000000000e+000 -3.649434346844e-011 -3.850193690014e-014 
2.500000000000e-002 -4.215805502194e-011 -4.828115496083e-014 
5.000000000000e-002 -4.467188991422e-011 -3.120933877217e-014 
7.500000000000e-002 -4.136470316765e-011 3.653219788685e-014 
1.000000000000e-001 -4.296824664252e-011 1.379257700393e-013 
1.250000000000e-001 -5.635898112554e-011 2.488129646530e-013 
1.500000000000e-001 -8.328141571160e-011 3.069798398025e-013 
1.750000000000e-001 -1.142878369362e-010 3.004829020442e-013 
2.000000000000e-001 -1.468502251065e-010 2.570438343407e-013 
2.250000000000e-001 -1.560866274866e-010 1.919579037066e-013 
2.500000000000e-001 -1.377877105671e-010 1.354712105288e-013 
2.750000000000e-001 -1.264951249974e-010 1.213949718288e-013 
3.000000000000e-001 -1.163217483877e-010 1.530109796243e-013 
3.250000000000e-001 -9.698603038637e-011 2.150914001448e-013 
3.500000000000e-001 -8.483814611732e-011 2.697747425287e-013 
3.750000000000e-001 -9.103798601082e-011 2.781587666243e-013 
4.000000000000e-001 -1.255244581088e-010 2.397728108312e-013 
4.250000000000e-001 -1.920723419905e-010 1.739593241894e-013 
4.500000000000e-001 -2.680644996313e-010 9.332321227074e-014 
4.750000000000e-001 -3.391431773725e-010 -5.253419058112e-014 
5.000000000000e-001 -3.780825854252e-010 -3.878672720486e-013 
5.250000000000e-001 -3.478905531724e-010 -9.929967556929e-013 
5.500000000000e-001 -2.944941434338e-010 -1.976396242053e-012 
5.750000000000e-001 -2.708498279371e-010 -4.175587957611e-012 
6.000000000000e-001 -2.501780959906e-010 2.273972951414e-009 
 ZONE T="TIME=2.500000000000e+002"
0.000000000000e+000 -4.752160135186e-011 -2.167137405508e-014 
2.500000000000e-002 -5.128112818196e-011 -2.498150549647e-014 
5.000000000000e-002 -5.196072200970e-011 -9.364877003602e-015 
7.500000000000e-002 -4.889963761413e-011 3.653429818934e-014 
1.000000000000e-001 -5.033369985343e-011 1.026569569236e-013 
1.250000000000e-001 -6.361824758957e-011 1.745371829670e-013 
1.500000000000e-001 -9.103752336462e-011 2.147075097401e-013 
1.750000000000e-001 -1.214541566833e-010 2.159078799561e-013 
2.000000000000e-001 -1.519846272780e-010 1.936619012936e-013 
2.250000000000e-001 -1.611323340474e-010 1.549896778495e-013 
2.500000000000e-001 -1.448276262055e-010 1.178486878117e-013 
2.750000000000e-001 -1.341448451311e-010 1.063731102077e-013 
3.000000000000e-001 -1.245163211199e-010 1.243157827315e-013 
3.250000000000e-001 -1.065450261830e-010 1.578219526292e-013 
3.500000000000e-001 -9.726985276676e-011 1.798053479364e-013 
3.750000000000e-001 -1.083639952388e-010 1.700042015304e-013 
4.000000000000e-001 -1.445103755104e-010 1.315933049268e-013 
4.250000000000e-001 -2.080151131545e-010 7.697288994286e-014 
4.500000000000e-001 -2.811736171827e-010 1.324530997477e-014 
4.750000000000e-001 -3.509735702666e-010 -1.009847521002e-013 
5.000000000000e-001 -3.920094742134e-010 -3.646015383402e-013 
5.250000000000e-001 -3.664180091675e-010 -8.457176712786e-013 
5.500000000000e-001 -3.124101442455e-010 -1.642839648460e-012 
5.750000000000e-001 -2.870919255733e-010 -3.449122018426e-012 
6.000000000000e-001 -2.687012702525e-010 2.051790393559e-009 
 ZONE T="TIME=3.000000000000e+002"
0.000000000000e+000 -5.773952941019e-011 -1.478852729885e-014 
2.500000000000e-002 -5.998371145711e-011 -1.566085823317e-014 
5.000000000000e-002 -5.910337678636e-011 -1.676594726378e-015 
7.500000000000e-002 -5.610362433487e-011 3.277220332861e-014 
1.000000000000e-001 -5.726550852881e-011 8.087805989212e-014 
1.250000000000e-001 -7.048005276187e-011 1.337766411678e-013 
1.500000000000e-001 -9.856822371837e-011 1.647803258687e-013 
1.750000000000e-001 -1.288508212447e-010 1.683650470981e-013 
2.000000000000e-001 -1.581985117180e-010 1.551859393107e-013 
2.250000000000e-001 -1.673764859288e-010 1.285349563493e-013 
2.500000000000e-001 -1.522993763816e-010 1.002680522028e-013 
2.750000000000e-001 -1.418726790213e-010 8.970537365663e-014 
3.000000000000e-001 -1.324157354634e-010 1.009306732935e-013 
3.250000000000e-001 -1.150894625144e-010 1.220128435070e-013 
3.500000000000e-001 -1.076348630133e-010 1.317563379912e-013 
3.750000000000e-001 -1.221538304977e-010 1.166311420097e-013 
4.000000000000e-001 -1.595893416722e-010 8.046676657980e-014 
4.250000000000e-001 -2.212829069490e-010 3.348781358464e-014 
4.500000000000e-001 -2.928403722588e-010 -1.970882501334e-014 
4.750000000000e-001 -3.620885463953e-010 -1.158568972353e-013 
5.000000000000e-001 -4.046634020695e-010 -3.397187712893e-013 
5.250000000000e-001 -3.818162687370e-010 -7.509719944138e-013 
5.500000000000e-001 -3.269052076780e-010 -1.437476199234e-012 
5.750000000000e-001 -3.004512223796e-010 -3.003951671188e-012 
6.000000000000e-001 -2.839416682985e-010 1.910961873754e-009 
 ZONE T="TIME=3.500000000000e+002"
0.000000000000e+000 -6.767641879262e-011 -1.101977140797e-014 
2.500000000000e-002 -6.854007482978e-011 -1.084361970647e-014 
5.000000000000e-002 -6.616647278040e-011 1.369233498099e-015 
7.500000000000e-002 -6.310961781557e-011 2.821460505147e-014 
1.000000000000e-001 -6.392966938237e-011 6.478795577079e-014 
1.250000000000e-001 -7.705310275199e-011 1.055769087651e-013 
1.500000000000e-001 -1.058033707596e-010 1.302935618253e-013 
1.750000000000e-001 -1.360385620875e-010 1.345397063358e-013 
2.000000000000e-001 -1.644092976474e-010 1.263237397233e-013 
2.250000000000e-001 -1.735422548706e-010 1.068589046850e-013 
2.500000000000e-001 -1.593234501139e-010 8.412349333268e-014 
2.750000000000e-001 -1.489486801665e-010 7.427358053131e-014 
3.000000000000e-001 -1.394626173603e-010 8.170432011517e-014 
3.250000000000e-001 -1.224748993589e-010 9.599519642292e-014 
3.500000000000e-001 -1.163367662755e-010 9.965457846570e-014 
3.750000000000e-001 -1.334790116013e-010 8.278807285262e-014 
4.000000000000e-001 -1.717749639513e-010 4.936166194289e-014 
4.250000000000e-001 -2.317908666897e-010 8.337043915502e-015 
4.500000000000e-001 -3.018082300805e-010 -3.714248883791e-014 
4.750000000000e-001 -3.703477884695e-010 -1.199416728023e-013 
5.000000000000e-001 -4.139529250456e-010 -3.138964065783e-013 
5.250000000000e-001 -3.932847860731e-010 -6.718086695617e-013 
5.500000000000e-001 -3.377780575524e-010 -1.272621150969e-012 
5.750000000000e-001 -3.105368023168e-010 -2.650737688097e-012 
6.000000000000e-001 -2.956893039906e-010 1.791271525950e-009 
 ZONE T="TIME=4.000000000000e+002"
0.000000000000e+000 -7.918394135390e-011 -3.448009192063e-016 
2.500000000000e-002 -7.754628474012e-011 2.317757054103e-015 
5.000000000000e-002 -7.274071200873e-011 9.909732218496e-015 
7.500000000000e-002 -6.984000981759e-011 2.023222626489e-014 
1.000000000000e-001 -7.020095153063e-011 3.255145087501e-014 
1.250000000000e-001 -8.243827149060e-011 4.508439408484e-014 
1.500000000000e-001 -1.103048185163e-010 5.450040164950e-014 
1.750000000000e-001 -1.382044328752e-010 6.074330382922e-014 
2.000000000000e-001 -1.624279457767e-010 6.406333114517e-014 
2.250000000000e-001 -1.705844695614e-010 6.167948357777e-014 
2.500000000000e-001 -1.590727308973e-010 5.361739438478e-014 
2.750000000000e-001 -1.495686099365e-010 4.789894673470e-014 
3.000000000000e-001 -1.408560373747e-010 4.900669088834e-014 
3.250000000000e-001 -1.260527632355e-010 4.857014497955e-014 
3.500000000000e-001 -1.231913097317e-010 3.657212994157e-014 
3.750000000000e-001 -1.444906368484e-010 1.474768884509e-014 
4.000000000000e-001 -1.818791114667e-010 -1.128375559264e-014 
4.250000000000e-001 -2.341146126890e-010 -3.874009904639e-014 
4.500000000000e-001 -2.958416547696e-010 -6.734643139377e-014 
4.750000000000e-001 -3.579016100981e-010 -1.157473496745e-013 
5.000000000000e-001 -4.007845819160e-010 -2.259626220391e-013 
5.250000000000e-001 -3.871289651607e-010 -4.331999578239e-013 
5.500000000000e-001 -3.350668615570e-010 -7.995521310726e-013 
5.750000000000e-001 -3.077124040049e-010 -1.664766782810e-012 
6.000000000000e-001 -2.963256299400e-010 1.397569615404e-009 
 ZONE T="TIME=4.500000000000e+002"
0.000000000000e+000 -8.388744689061e-011 -1.186080291179e-014 
2.500000000000e-002 -8.286897888684e-011 -1.225185046160e-014 
5.000000000000e-002 -7.830452990683e-011 -2.161538697039e-015 
7.500000000000e-002 -7.492780511545e-011 1.907814596064e-014 
1.000000000000e-001 -7.494072702074e-011 4.740220123843e-014 
1.250000000000e-001 -8.774560848146e-011 8.212418653037e-014 
1.500000000000e-001 -1.175385170398e-010 1.035746926185e-013 
1.750000000000e-001 -1.479217787862e-010 1.060649515091e-013 
2.000000000000e-001 -1.754279568202e-010 9.823874964827e-014 
2.250000000000e-001 -1.844571934529e-010 8.072453700068e-014 
2.500000000000e-001 -1.706165307749e-010 5.975522307018e-014 
2.750000000000e-001 -1.598000711119e-010 4.972553286048e-014 
3.000000000000e-001 -1.497071208253e-010 5.460848971572e-014 
3.250000000000e-001 -1.323209854360e-010 6.756024887637e-014 
3.500000000000e-001 -1.268132571879e-010 7.528508682733e-014 
3.750000000000e-001 -1.459241213259e-010 6.500909907405e-014 
4.000000000000e-001 -1.846311383181e-010 3.801213680953e-014 
4.250000000000e-001 -2.429743674808e-010 5.449691658930e-015 
4.500000000000e-001 -3.115283067080e-010 -3.016403855594e-014 
4.750000000000e-001 -3.793453965340e-010 -1.010014361536e-013 
5.000000000000e-001 -4.234322338038e-010 -2.743830903538e-013 
5.250000000000e-001 -4.037229825702e-010 -5.944218369582e-013 
5.500000000000e-001 -3.472735458992e-010 -1.119177660927e-012 
5.750000000000e-001 -3.200168776391e-010 -2.315226311093e-012 
6.000000000000e-001 -3.079040938362e-010 1.700767384818e-009 
 ZONE T="TIME=5.000000000000e+002"
0.000000000000e+000 -9.288116007284e-011 -8.962011791672e-015 
2.500000000000e-002 -9.062017946795e-011 -9.074765976521e-015 
5.000000000000e-002 -8.459835943932e-011 -9.083228357025e-016 
7.500000000000e-002 -8.097210939652e-011 1.607585984667e-014 
1.000000000000e-001 -8.058415420304e-011 3.873066112702e-014 
1.250000000000e-001 -9.325585104400e-011 6.582389771145e-014 
1.500000000000e-001 -1.235179783207e-010 8.249605863878e-014 
1.750000000000e-001 -1.537186298218e-010 8.506110089561e-014 
2.000000000000e-001 -1.801061870644e-010 8.007482766863e-014 
2.250000000000e-001 -1.887230659945e-010 6.724530182069e-014 
2.500000000000e-001 -1.753187435324e-010 5.033440889060e-014 
2.750000000000e-001 -1.642989412439e-010 4.161498698573e-014 
3.000000000000e-001 -1.539925043998e-010 4.580605518083e-014 
3.250000000000e-001 -1.367897262637e-010 5.564228652064e-014 
3.500000000000e-001 -1.321966045885e-010 5.845857320163e-014 
3.750000000000e-001 -1.530936287438e-010 4.578741171433e-014 
4.000000000000e-001 -1.919861797046e-010 2.028309275868e-014 
4.250000000000e-001 -2.481906321090e-010 -9.603938217525e-015 
4.500000000000e-001 -3.145504041065e-010 -4.205297106120e-014 
4.750000000000e-001 -3.808374171175e-010 -1.036810021627e-013 
5.000000000000e-001 -4.253358069008e-010 -2.509050535926e-013 
5.250000000000e-001 -4.081749756055e-010 -5.235061089883e-013 
5.500000000000e-001 -3.522682943994e-010 -9.803566665343e-013 
5.750000000000e-001 -3.244634160939e-010 -2.031628518323e-012 
6.000000000000e-001 -3.133526287805e-010 1.565653107674e-009 
 ZONE T="TIME=5.500000000000e+002"
0.000000000000e+000 -1.005932729763e-010 -5.860005937685e-015 
2.500000000000e-002 -9.720092515601e-011 -5.283121693815e-015 
5.000000000000e-002 -8.991954880483e-011 1.467963540196e-015 
7.500000000000e-002 -8.613372979286e-011 1.366970525194e-014 
1.000000000000e-001 -8.535533984291e-011 2.936857204955e-014 
1.250000000000e-001 -9.772645704472e-011 4.822481402399e-014 
1.500000000000e-001 -1.280697330750e-010 6.044445095495e-014 
1.750000000000e-001 -1.577330567823e-010 6.368631007509e-014 
2.000000000000e-001 -1.828024178843e-010 6.213014023267e-014 
2.250000000000e-001 -1.909496638346e-010 5.433858900844e-014 
2.500000000000e-001 -1.780388802939e-010 4.187276769833e-014 
2.750000000000e-001 -1.668936180596e-010 3.467726639071e-014 
3.000000000000e-001 -1.564341530005e-010 3.742500873410e-014 
3.250000000000e-001 -1.394894954562e-010 4.315817206377e-014 
3.500000000000e-001 -1.356139317339e-010 4.114452525143e-014 
3.750000000000e-001 -1.576712382578e-010 2.670221090588e-014 
4.000000000000e-001 -1.961547714539e-010 3.232191695109e-015 
4.250000000000e-001 -2.498084449280e-010 -2.283255247186e-014 
4.500000000000e-001 -3.134861549273e-010 -5.045988445567e-014 
4.750000000000e-001 -3.776671778687e-010 -1.020399955758e-013 
5.000000000000e-001 -4.218324076332e-010 -2.248954958368e-013 
5.250000000000e-001 -4.067091817193e-010 -4.537087446441e-013 
5.500000000000e-001 -3.518099059582e-010 -8.420851458605e-013 
5.750000000000e-001 -3.241064507724e-010 -1.742743966472e-012 
6.000000000000e-001 -3.143736240441e-010 1.443010725267e-009 
 ZONE T="TIME=6.000000000000e+002"
0.000000000000e+000 -1.066159772282e-010 -4.946061885679e-015 
2.500000000000e-002 -1.024261097776e-010 -4.267645510208e-015 
5.000000000000e-002 -9.422458523726e-011 1.624146742677e-015 
7.500000000000e-002 -9.027183931556e-011 1.144227181036e-014 
1.000000000000e-001 -8.912438082611e-011 2.373900268525e-014 
1.250000000000e-001 -1.011958107815e-010 3.904888728238e-014 
1.500000000000e-001 -1.315586807766e-010 4.935145512486e-014 
1.750000000000e-001 -1.608167698922e-010 5.256316237003e-014 
2.000000000000e-001 -1.850013624368e-010 5.211555599805e-014 
2.250000000000e-001 -1.927706806433e-010 4.621091513410e-014 
2.500000000000e-001 -1.800192237374e-010 3.559060850489e-014 
2.750000000000e-001 -1.686729969025e-010 2.908940108294e-014 
3.000000000000e-001 -1.579823379320e-010 3.115897564435e-014 
3.250000000000e-001 -1.410362127797e-010 3.549795399705e-014 
3.500000000000e-001 -1.373806555936e-010 3.266815706709e-014 
3.750000000000e-001 -1.598060955845e-010 1.887697011896e-014 
4.000000000000e-001 -1.977359688462e-010 -2.635950547829e-015 
4.250000000000e-001 -2.496539247020e-010 -2.595255230372e-014 
4.500000000000e-001 -3.114976128981e-010 -5.033973048400e-014 
4.750000000000e-001 -3.741604464134e-010 -9.634188665858e-014 
5.000000000000e-001 -4.178002193409e-010 -2.068165348940e-013 
5.250000000000e-001 -4.036436656705e-010 -4.130753999376e-013 
5.500000000000e-001 -3.495365318432e-010 -7.632638138558e-013 
5.750000000000e-001 -3.222364828963e-010 -1.576636018522e-012 
6.000000000000e-001 -3.136032226766e-010 1.373331018608e-009 
 ZONE T="TIME=6.500000000000e+002"
0.000000000000e+000 -1.113318791917e-010 -5.137862044010e-015 
2.500000000000e-002 -1.065926980623e-010 -4.683511423780e-015 
5.000000000000e-002 -9.771130614995e-011 6.516612615653e-016 
7.500000000000e-002 -9.357125921068e-011 9.591144502389e-015 
1.000000000000e-001 -9.208913752081e-011 2.077526867592e-014 
1.250000000000e-001 -1.039095494481e-010 3.521159381753e-014 
1.500000000000e-001 -1.343056709427e-010 4.494812616473e-014 
1.750000000000e-001 -1.633185062479e-010 4.776295572667e-014 
2.000000000000e-001 -1.869670428501e-010 4.717671891492e-014 
2.250000000000e-001 -1.944285480180e-010 4.144991960719e-014 
2.500000000000e-001 -1.815911894380e-010 3.119933625629e-014 
2.750000000000e-001 -1.699839886123e-010 2.490779888913e-014 
3.000000000000e-001 -1.590118567344e-010 2.688618519181e-014 
3.250000000000e-001 -1.418916431090e-010 3.137283675107e-014 
3.500000000000e-001 -1.381556703454e-010 2.952041504015e-014 
3.750000000000e-001 -1.605103858021e-010 1.717642004957e-014 
4.000000000000e-001 -1.979137677078e-010 -2.836056064422e-015 
4.250000000000e-001 -2.487705220306e-010 -2.449578927162e-014 
4.500000000000e-001 -3.094855379449e-010 -4.709145381363e-014 
4.750000000000e-001 -3.711594502744e-010 -9.049900841617e-014 
5.000000000000e-001 -4.142948620291e-010 -1.956909938460e-013 
5.250000000000e-001 -4.004969291828e-010 -3.920538486704e-013 
5.500000000000e-001 -3.469705646547e-010 -7.238583736763e-013 
5.750000000000e-001 -3.201272645209e-010 -1.493262026791e-012 
6.000000000000e-001 -3.122544398802e-010 1.337931643146e-009 
 ZONE T="TIME=7.000000000000e+002"
0.000000000000e+000 -1.154831183472e-010 -4.396453524243e-015 
2.500000000000e-002 -1.101264905294e-010 -3.934202598060e-015 
5.000000000000e-002 -1.005368470777e-010 6.491082879482e-016 
7.500000000000e-002 -9.625549303346e-011 7.946481310185e-015 
1.000000000000e-001 -9.446431035545e-011 1.692006633936e-014 
1.250000000000e-001 -1.059445528989e-010 2.882165013387e-014 
1.500000000000e-001 -1.361198719511e-010 3.705853609424e-014 
1.750000000000e-001 -1.645751308846e-010 3.976002061330e-014 
2.000000000000e-001 -1.872988534274e-010 3.986695613512e-014 
2.250000000000e-001 -1.943423660584e-010 3.548863097401e-014 
2.500000000000e-001 -1.816764289636e-010 2.668516839153e-014 
2.750000000000e-001 -1.699583442907e-010 2.103986371176e-014 
3.000000000000e-001 -1.588615028053e-010 2.271073491259e-014 
3.250000000000e-001 -1.418619058123e-010 2.634206279480e-014 
3.500000000000e-001 -1.383279800981e-010 2.391106107089e-014 
3.750000000000e-001 -1.608053682494e-010 1.210677136889e-014 
4.000000000000e-001 -1.974875373655e-010 -6.278352332196e-015 
4.250000000000e-001 -2.465700888719e-010 -2.586740076132e-014 
4.500000000000e-001 -3.053539717925e-010 -4.612697002700e-014 
4.750000000000e-001 -3.653472308740e-010 -8.498107373683e-014 
5.000000000000e-001 -4.077941759149e-010 -1.792212399595e-013 
5.250000000000e-001 -3.950198301343e-010 -3.554856251299e-013 
5.500000000000e-001 -3.426215706887e-010 -6.544771420227e-013 
5.750000000000e-001 -3.162758941668e-010 -1.349504246072e-012 
6.000000000000e-001 -3.092739100805e-010 1.268199723998e-009 
 ZONE T="TIME=7.500000000000e+002"
0.000000000000e+000 -1.188550002676e-010 -3.199184351164e-015 
2.500000000000e-002 -1.128630692695e-010 -2.593623288386e-015 
5.000000000000e-002 -1.025970419232e-010 1.181827241180e-015 
7.500000000000e-002 -9.823267162576e-011 6.447008961572e-015 
1.000000000000e-001 -9.615739405477e-011 1.261005385142e-014 
1.250000000000e-001 -1.071956066341e-010 2.116869619381e-014 
1.500000000000e-001 -1.368786992963e-010 2.749395637504e-014 
1.750000000000e-001 -1.644773803095e-010 3.023140848593e-014 
2.000000000000e-001 -1.859665109362e-010 3.141566097852e-014 
2.250000000000e-001 -1.925182581847e-010 2.892802688841e-014 
2.500000000000e-001 -1.802400158173e-010 2.213360492880e-014 
2.750000000000e-001 -1.685569507675e-010 1.738749892414e-014 
3.000000000000e-001 -1.574787289923e-010 1.856052295066e-014 
3.250000000000e-001 -1.408421184334e-010 2.077484433417e-014 
3.500000000000e-001 -1.376905108812e-010 1.712486771571e-014 
3.750000000000e-001 -1.603197344422e-010 5.613578607216e-015 
4.000000000000e-001 -1.960346168150e-010 -1.091106157968e-014 
4.250000000000e-001 -2.427624575118e-010 -2.801607364694e-014 
4.500000000000e-001 -2.989553225092e-010 -4.542079675451e-014 
4.750000000000e-001 -3.566699740759e-010 -7.850296547493e-014 
5.000000000000e-001 -3.981583632292e-010 -1.587232064927e-013 
5.250000000000e-001 -3.867782868127e-010 -3.093208030042e-013 
5.500000000000e-001 -3.359799179535e-010 -5.666859752638e-013 
5.750000000000e-001 -3.102864091768e-010 -1.167780309923e-012 
6.000000000000e-001 -3.043124565428e-010 1.176182878184e-009 
 ZONE T="TIME=8.000000000000e+002"
0.000000000000e+000 -1.208501321211e-010 -3.034414550004e-015 
2.500000000000e-002 -1.144988608038e-010 -2.525758167309e-015 
5.000000000000e-002 -1.038356322297e-010 7.897319091867e-016 
7.500000000000e-002 -9.938583917318e-011 5.246687741819e-015 
1.000000000000e-001 -9.706977665825e-011 1.037282895345e-014 
1.250000000000e-001 -1.077265431650e-010 1.787969241130e-014 
1.500000000000e-001 -1.369584198185e-010 2.355010485207e-014 
1.750000000000e-001 -1.639060932439e-010 2.605153578091e-014 
2.000000000000e-001 -1.845940862444e-010 2.726969303749e-014 
2.250000000000e-001 -1.907778278135e-010 2.515749480986e-014 
2.500000000000e-001 -1.786300275493e-010 1.899813970570e-014 
2.750000000000e-001 -1.669236757431e-010 1.462694633506e-014 
3.000000000000e-001 -1.558058507766e-010 1.564644144935e-014 
3.250000000000e-001 -1.393191450547e-010 1.765708045723e-014 
3.500000000000e-001 -1.361959953868e-010 1.441252655695e-014 
3.750000000000e-001 -1.584841591500e-010 3.968451599223e-015 
4.000000000000e-001 -1.932798956428e-010 -1.111271294423e-014 
4.250000000000e-001 -2.384625581205e-010 -2.659045623630e-014 
4.500000000000e-001 -2.929235469360e-010 -4.222702953930e-014 
4.750000000000e-001 -3.490161710724e-010 -7.234637843598e-014 
5.000000000000e-001 -3.895531851222e-010 -1.459845656806e-013 
5.250000000000e-001 -3.787290220441e-010 -2.843088443918e-013 
5.500000000000e-001 -3.291766156273e-010 -5.199621668781e-013 
5.750000000000e-001 -3.042335821957e-010 -1.069969071297e-012 
6.000000000000e-001 -2.990068298970e-010 1.127924776252e-009 
 ZONE T="TIME=8.500000000000e+002"
0.000000000000e+000 -1.218622457904e-010 -3.451209251536e-015 
2.500000000000e-002 -1.153546609961e-010 -3.179857723298e-015 
5.000000000000e-002 -1.044901102445e-010 -1.138109697411e-016 
7.500000000000e-002 -9.994347347830e-011 4.324672089709e-015 
1.000000000000e-001 -9.743328936718e-011 9.576410755930e-015 
1.250000000000e-001 -1.077969083176e-010 1.741918756339e-014 
1.500000000000e-001 -1.366719295797e-010 2.316564227571e-014 
1.750000000000e-001 -1.631843563860e-010 2.528743337945e-014 
2.000000000000e-001 -1.834279757751e-010 2.595608389211e-014 
2.250000000000e-001 -1.893424366216e-010 2.335181805219e-014 
2.500000000000e-001 -1.771270567960e-010 1.698295936043e-014 
2.750000000000e-001 -1.653438444906e-010 1.264501814790e-014 
3.000000000000e-001 -1.541406336710e-010 1.379414700809e-014 
3.250000000000e-001 -1.376450445296e-010 1.637199306293e-014 
3.500000000000e-001 -1.343287426849e-010 1.435287971090e-014 
3.750000000000e-001 -1.560226444979e-010 5.213136498180e-015 
4.000000000000e-001 -1.900443417905e-010 -8.869949194855e-015 
4.250000000000e-001 -2.343542416767e-010 -2.347114799451e-014 
4.500000000000e-001 -2.878030539320e-010 -3.827131677762e-014 
4.750000000000e-001 -3.428572060190e-010 -6.738942752613e-014 
5.000000000000e-001 -3.825827133767e-010 -1.392084991094e-013 
5.250000000000e-001 -3.718075081400e-010 -2.738921203042e-013 
5.500000000000e-001 -3.231722059252e-010 -5.016460924734e-013 
5.750000000000e-001 -2.989210319155e-010 -1.031337130517e-012 
6.000000000000e-001 -2.941315616141e-010 1.109721472445e-009 
 ZONE T="TIME=9.000000000000e+002"
0.000000000000e+000 -1.229366081855e-010 -2.504261849753e-015 
2.500000000000e-002 -1.160231868753e-010 -2.128549698520e-015 
5.000000000000e-002 -1.047674635694e-010 3.712082360590e-016 
7.500000000000e-002 -1.002026846050e-010 3.517255646972e-015 
1.000000000000e-001 -9.751361516464e-011 7.027875859423e-015 
1.250000000000e-001 -1.074349734093e-010 1.258804918757e-014 
1.500000000000e-001 -1.356066921028e-010 1.696011504483e-014 
1.750000000000e-001 -1.611665566996e-010 1.908561297011e-014 
2.000000000000e-001 -1.802265138181e-010 2.045260870832e-014 
2.250000000000e-001 -1.856869244263e-010 1.916662502295e-014 
2.500000000000e-001 -1.739146701816e-010 1.430910844569e-014 
2.750000000000e-001 -1.623017275250e-010 1.072152811368e-014 
3.000000000000e-001 -1.512605238937e-010 1.160167728825e-014 
3.250000000000e-001 -1.352644343425e-010 1.319935795022e-014 
3.500000000000e-001 -1.323324377915e-010 1.025001609599e-014 
3.750000000000e-001 -1.539825427004e-010 1.305856723857e-015 
4.000000000000e-001 -1.869547005275e-010 -1.135610036817e-014 
4.250000000000e-001 -2.290000777706e-010 -2.416632532783e-014 