 TITLE = "Profiles along polylines"
 VARIABLES = "DIST" "VELOCITY_X2" "VELOCITY_Y2" 
 ZONE T="TIME=0.000000000000e+000"
0.000000000000e+000 0.000000000000e+000 0.000000000000e+000 
2.500000000000e-002 0.000000000000e+000 0.000000000000e+000 
5.000000000000e-002 0.000000000000e+000 0.000000000000e+000 
7.500000000000e-002 0.000000000000e+000 0.000000000000e+000 
1.000000000000e-001 0.000000000000e+000 0.000000000000e+000 
1.250000000000e-001 0.000000000000e+000 0.000000000000e+000 
1.500000000000e-001 0.000000000000e+000 0.000000000000e+000 
1.750000000000e-001 0.000000000000e+000 0.000000000000e+000 
2.000000000000e-001 0.000000000000e+000 0.000000000000e+000 
2.250000000000e-001 0.000000000000e+000 0.000000000000e+000 
2.500000000000e-001 0.000000000000e+000 0.000000000000e+000 
2.750000000000e-001 0.000000000000e+000 0.000000000000e+000 
3.000000000000e-001 0.000000000000e+000 0.000000000000e+000 
3.250000000000e-001 0.000000000000e+000 0.000000000000e+000 
3.500000000000e-001 0.000000000000e+000 0.000000000000e+000 
3.750000000000e-001 0.000000000000e+000 0.000000000000e+000 
4.000000000000e-001 0.000000000000e+000 0.000000000000e+000 
4.250000000000e-001 0.000000000000e+000 0.000000000000e+000 
4.500000000000e-001 0.000000000000e+000 0.000000000000e+000 
4.750000000000e-001 0.000000000000e+000 0.000000000000e+000 
5.000000000000e-001 0.000000000000e+000 0.000000000000e+000 
5.250000000000e-001 0.000000000000e+000 0.000000000000e+000 
5.500000000000e-001 0.000000000000e+000 0.000000000000e+000 
5.750000000000e-001 0.000000000000e+000 0.000000000000e+000 
6.000000000000e-001 0.000000000000e+000 0.000000000000e+000 
 TITLE = "Profiles along polylines"
 VARIABLES = "DIST" "VELOCITY_X2" "VELOCITY_Y2" 
 ZONE T="TIME=5.000000000000e+001"
0.000000000000e+000 2.724827862708e-010 -9.460178948229e-014 
2.500000000000e-002 2.433032191360e-010 -7.778010996451e-015 
5.000000000000e-002 2.122231909608e-010 3.164945292295e-013 
7.500000000000e-002 2.200841758052e-010 5.696818961798e-013 
1.000000000000e-001 2.143997193697e-010 5.266987864723e-013 
1.250000000000e-001 1.785608203421e-010 5.049533651787e-013 
1.500000000000e-001 1.514849769615e-010 4.955657602827e-013 
1.750000000000e-001 1.373183243984e-010 4.355616851212e-013 
2.000000000000e-001 1.243844424225e-010 4.504717968063e-013 
2.250000000000e-001 1.414416419425e-010 3.218317848482e-013 
2.500000000000e-001 1.754429989867e-010 -9.249332725874e-014 
2.750000000000e-001 1.543987761869e-010 -4.077147220455e-013 
3.000000000000e-001 8.363175915085e-011 -2.815501724506e-013 
3.250000000000e-001 2.604080581176e-011 1.358526079880e-013 
3.500000000000e-001 4.470237902122e-012 6.661019011092e-013 
3.750000000000e-001 1.651796775066e-011 1.079939744723e-012 
4.000000000000e-001 6.143665250053e-011 1.152612536785e-012 
4.250000000000e-001 1.131777836387e-010 1.112437604942e-012 
4.500000000000e-001 1.144745256167e-010 1.019471670564e-012 
4.750000000000e-001 7.351463859780e-011 6.095626424401e-013 
5.000000000000e-001 4.362703963451e-011 -2.828019484101e-013 
5.250000000000e-001 1.683895611053e-011 -1.769419510659e-012 
5.500000000000e-001 3.314670255227e-012 -4.164257508801e-012 
5.750000000000e-001 -4.986349163817e-012 -9.500711946643e-012 
6.000000000000e-001 -2.518392110638e-011 4.170409566769e-009 
 ZONE T="TIME=1.000000000000e+002"
0.000000000000e+000 1.871034795426e-010 5.985989688639e-015 
2.500000000000e-002 1.666873490540e-010 6.531365840670e-014 
5.000000000000e-002 1.452991924690e-010 2.264098419097e-013 
7.500000000000e-002 1.509267863905e-010 3.510189383384e-013 
1.000000000000e-001 1.452700549299e-010 3.611196176415e-013 
1.250000000000e-001 1.166398097002e-010 3.495775175376e-013 
1.500000000000e-001 9.366084305533e-011 3.199230126690e-013 
1.750000000000e-001 8.126392231964e-011 2.665349670244e-013 
2.000000000000e-001 7.096971880829e-011 2.301453524641e-013 
2.250000000000e-001 8.205229025832e-011 1.438309945197e-013 
2.500000000000e-001 1.059878352149e-010 -1.694591895313e-014 
2.750000000000e-001 9.241081136556e-011 -1.086070484585e-013 
3.000000000000e-001 4.514575838735e-011 -3.682819217127e-014 
3.250000000000e-001 8.430603016057e-012 1.189730689727e-013 
3.500000000000e-001 -1.783249020131e-012 3.020595417681e-013 
3.750000000000e-001 1.307268259101e-011 4.414089455741e-013 
4.000000000000e-001 5.188189685854e-011 4.527298011018e-013 
4.250000000000e-001 9.419420761244e-011 3.916631076883e-013 
4.500000000000e-001 9.876892167746e-011 2.543303037420e-013 
4.750000000000e-001 7.178334015698e-011 -5.765263603329e-014 
5.000000000000e-001 5.056419270487e-011 -6.282480188601e-013 
5.250000000000e-001 2.864382228647e-011 -1.597780576094e-012 
5.500000000000e-001 1.410252919456e-011 -3.317475498645e-012 
5.750000000000e-001 1.311109885481e-012 -7.228427233395e-012 
6.000000000000e-001 -2.112820624657e-011 3.234401566670e-009 
 ZONE T="TIME=1.500000000000e+002"
0.000000000000e+000 1.420187213260e-010 2.307997136107e-014 
2.500000000000e-002 1.264191577692e-010 6.281659600201e-014 
5.000000000000e-002 1.100178338148e-010 1.533245799734e-013 
7.500000000000e-002 1.137731493790e-010 2.214126921329e-013 
1.000000000000e-001 1.081657697908e-010 2.366996627389e-013 
1.250000000000e-001 8.437397457663e-011 2.301777279707e-013 
1.500000000000e-001 6.465871943166e-011 2.053206700867e-013 
1.750000000000e-001 5.397963870899e-011 1.671564217923e-013 
2.000000000000e-001 4.572722668083e-011 1.347369034435e-013 
2.250000000000e-001 5.416360770286e-011 8.399556876778e-014 
2.500000000000e-001 7.308289398818e-011 1.188150825963e-014 
2.750000000000e-001 6.378472208680e-011 -1.833176012098e-014 
3.000000000000e-001 2.885305487562e-011 1.987602393492e-014 
3.250000000000e-001 2.259547844741e-012 7.744845709191e-014 
3.500000000000e-001 -3.368529004132e-012 1.373700995368e-013 
3.750000000000e-001 1.113157083419e-011 1.799662001386e-013 
4.000000000000e-001 4.448184184302e-011 1.658990324110e-013 
4.250000000000e-001 7.993985001962e-011 1.090978281272e-013 
4.500000000000e-001 8.496545605665e-011 -5.726594623034e-015 
4.750000000000e-001 6.445514373101e-011 -2.342734085955e-013 
5.000000000000e-001 4.745226935642e-011 -6.368984233549e-013 
5.250000000000e-001 2.856432069085e-011 -1.335560629448e-012 
5.500000000000e-001 1.475410458116e-011 -2.627090378409e-012 
5.750000000000e-001 1.376549580465e-012 -5.625913444055e-012 
6.000000000000e-001 -2.060132944741e-011 2.777789202977e-009 
 ZONE T="TIME=2.000000000000e+002"
0.000000000000e+000 1.129693511232e-010 2.161182018979e-014 
2.500000000000e-002 1.002929065862e-010 5.100215504607e-014 
5.000000000000e-002 8.683529080562e-011 1.135424031688e-013 
7.500000000000e-002 8.933128068866e-011 1.595244983490e-013 
1.000000000000e-001 8.400735038785e-011 1.722033418896e-013 
1.250000000000e-001 6.370077785590e-011 1.679391391764e-013 
1.500000000000e-001 4.652354272922e-011 1.493218404428e-013 
1.750000000000e-001 3.741687563854e-011 1.216175967023e-013 
2.000000000000e-001 3.073217390370e-011 9.735687065464e-014 
2.250000000000e-001 3.792095746399e-011 6.321240711954e-014 
2.500000000000e-001 5.431325182381e-011 1.854426536285e-014 
2.750000000000e-001 4.780899215845e-011 1.655704093660e-015 
3.000000000000e-001 2.007087238240e-011 2.380845040789e-014 
3.250000000000e-001 -9.069071316944e-013 5.001019045999e-014 
3.500000000000e-001 -4.342730079066e-012 7.335721198896e-014 
3.750000000000e-001 9.240344935552e-012 8.651775765465e-014 
4.000000000000e-001 3.871513495630e-011 6.440089579252e-014 
4.250000000000e-001 6.977090453373e-011 1.227026921718e-014 
4.500000000000e-001 7.469930187146e-011 -8.544600965427e-014 
4.750000000000e-001 5.762341289004e-011 -2.716348237326e-013 
5.000000000000e-001 4.307527907516e-011 -5.976813349882e-013 
5.250000000000e-001 2.623635261445e-011 -1.169883017644e-012 
5.500000000000e-001 1.340208677202e-011 -2.244891112444e-012 
5.750000000000e-001 3.680882803512e-013 -4.768108908691e-012 
6.000000000000e-001 -2.075352810705e-011 2.533553827534e-009 
 ZONE T="TIME=2.500000000000e+002"
0.000000000000e+000 8.422532589422e-011 1.782417310340e-014 
2.500000000000e-002 7.433984211125e-011 3.882130751264e-014 
5.000000000000e-002 6.374245537727e-011 8.120810709037e-014 
7.500000000000e-002 6.520442549113e-011 1.117360604717e-013 
1.000000000000e-001 6.043229295903e-011 1.214314665473e-013 
1.250000000000e-001 4.374327466629e-011 1.186598948686e-013 
1.500000000000e-001 2.927063675317e-011 1.054608897818e-013 
1.750000000000e-001 2.190079663109e-011 8.623345103292e-014 
2.000000000000e-001 1.681578391334e-011 6.868378096058e-014 
2.250000000000e-001 2.291618972068e-011 4.562872477682e-014 
2.500000000000e-001 3.700679702476e-011 1.760383178078e-014 
2.750000000000e-001 3.304517477609e-011 7.476909556030e-015 
3.000000000000e-001 1.187413375065e-011 1.918846547041e-014 
3.250000000000e-001 -3.996453306524e-012 2.890038267160e-014 
3.500000000000e-001 -5.531927798492e-012 3.425559900660e-014 
3.750000000000e-001 6.984559626191e-012 3.307188182016e-014 
4.000000000000e-001 3.268193940315e-011 9.499272229509e-015 
4.250000000000e-001 5.957149570150e-011 -3.563924402548e-014 
4.500000000000e-001 6.436063583164e-011 -1.163536004629e-013 
4.750000000000e-001 5.046419405715e-011 -2.648552701416e-013 
5.000000000000e-001 3.829377535214e-011 -5.231112114623e-013 
5.250000000000e-001 2.357821701017e-011 -9.802242718389e-013 
5.500000000000e-001 1.192109934949e-011 -1.851234479653e-012 
5.750000000000e-001 -4.460101826023e-013 -3.914597450563e-012 
6.000000000000e-001 -2.030483949786e-011 2.278769525301e-009 
 ZONE T="TIME=3.000000000000e+002"
0.000000000000e+000 6.294736813651e-011 1.396093405542e-014 
2.500000000000e-002 5.506634489224e-011 2.984562931506e-014 
5.000000000000e-002 4.652815027176e-011 6.134443534229e-014 
7.500000000000e-002 4.729634456139e-011 8.366160065487e-014 
1.000000000000e-001 4.309171328149e-011 9.081383205151e-014 
1.250000000000e-001 2.923195794702e-011 8.879605430921e-014 
1.500000000000e-001 1.693071680838e-011 7.917429473824e-014 
1.750000000000e-001 1.102018702098e-011 6.509168013985e-014 
2.000000000000e-001 7.213011040529e-012 5.201850985950e-014 
2.250000000000e-001 1.268852579517e-011 3.494886683861e-014 
2.500000000000e-001 2.530859774354e-011 1.412713715090e-014 
2.750000000000e-001 2.313258521175e-011 5.683318757642e-015 
3.000000000000e-001 6.406194206548e-012 1.194733139827e-014 
3.250000000000e-001 -6.091779112884e-012 1.534515030093e-014 
3.500000000000e-001 -6.487341984295e-012 1.464723769290e-014 
3.750000000000e-001 5.084686203363e-012 8.737809667200e-015 
4.000000000000e-001 2.800738723423e-011 -1.407264908391e-014 
4.250000000000e-001 5.194990305693e-011 -5.393865655622e-014 
4.500000000000e-001 5.653845627000e-011 -1.229104820651e-013 
4.750000000000e-001 4.470124677031e-011 -2.476011581340e-013 
5.000000000000e-001 3.415038087078e-011 -4.642038851943e-013 
5.250000000000e-001 2.100183151740e-011 -8.495168554219e-013 
5.500000000000e-001 1.037013085022e-011 -1.588874579880e-012 
5.750000000000e-001 -1.244939975269e-012 -3.350506197162e-012 
6.000000000000e-001 -1.992345108590e-011 2.102443992831e-009 
 ZONE T="TIME=3.500000000000e+002"
0.000000000000e+000 4.533823268345e-011 1.088600788127e-014 
2.500000000000e-002 3.911536862381e-011 2.303367528227e-014 
5.000000000000e-002 3.230211260865e-011 4.683724561021e-014 
7.500000000000e-002 3.256557808443e-011 6.344153878752e-014 
1.000000000000e-001 2.891724925541e-011 6.867309124080e-014 
1.250000000000e-001 1.748201397918e-011 6.707884961228e-014 
1.500000000000e-001 7.069636059822e-012 5.989993079907e-014 
1.750000000000e-001 2.423620102121e-012 4.934102176173e-014 
2.000000000000e-001 -3.050840165281e-013 3.931837493666e-014 
2.250000000000e-001 4.673707510235e-012 2.620518926294e-014 
2.500000000000e-001 1.606362155402e-011 1.008502112349e-014 
2.750000000000e-001 1.527499373099e-011 2.728690988993e-015 
3.000000000000e-001 2.099935629632e-012 5.703038033364e-015 
3.250000000000e-001 -7.707955192478e-012 5.854251402254e-015 
3.500000000000e-001 -7.234270638223e-012 2.413958747024e-015 
3.750000000000e-001 3.501715020540e-012 -5.402233618510e-015 
4.000000000000e-001 2.410278351083e-011 -2.650225720966e-014 
4.250000000000e-001 4.559655505690e-011 -6.154209977981e-014 
4.500000000000e-001 4.998818103562e-011 -1.208914125098e-013 
4.750000000000e-001 3.981305492772e-011 -2.267869793474e-013 
5.000000000000e-001 3.059372741846e-011 -4.105560757507e-013 
5.250000000000e-001 1.877733394900e-011 -7.388179896757e-013 
5.500000000000e-001 9.058647945396e-012 -1.372514310475e-012 
5.750000000000e-001 -1.830016828494e-012 -2.889707237964e-012 
6.000000000000e-001 -1.937954494235e-011 1.947508316541e-009 
 ZONE T="TIME=4.000000000000e+002"
0.000000000000e+000 3.116683958173e-011 8.480512056023e-015 
2.500000000000e-002 2.629837401991e-011 1.782033204580e-014 
5.000000000000e-002 2.090668362007e-011 3.594781814910e-014 
7.500000000000e-002 2.080344007007e-011 4.838760643163e-014 
1.000000000000e-001 1.766179297930e-011 5.216437847669e-014 
1.250000000000e-001 8.264952468522e-012 5.081413063866e-014 
1.500000000000e-001 -5.332855252731e-013 4.532860325575e-014 
1.750000000000e-001 -4.122336845271e-012 3.724039391269e-014 
2.000000000000e-001 -5.973563577993e-012 2.937829970855e-014 
2.250000000000e-001 -1.417665821854e-012 1.906413180826e-014 
2.500000000000e-001 8.899694874242e-012 6.290813523429e-015 
2.750000000000e-001 9.148571567034e-012 -1.857362624237e-016 
3.000000000000e-001 -1.216103260079e-012 7.533810816796e-016 
3.250000000000e-001 -8.912602727651e-012 -8.668203970725e-016 
3.500000000000e-001 -7.829047016602e-012 -5.576978480268e-015 
3.750000000000e-001 2.098271147084e-012 -1.403403736294e-014 
4.000000000000e-001 2.066273005707e-011 -3.317787104681e-014 
4.250000000000e-001 4.002233596335e-011 -6.394455553496e-014 
4.500000000000e-001 4.413245503962e-011 -1.152924700090e-013 
4.750000000000e-001 3.520992798108e-011 -2.059763207671e-013 
5.000000000000e-001 2.700929352808e-011 -3.632349801620e-013 
5.250000000000e-001 1.629769149034e-011 -6.451717589480e-013 
5.500000000000e-001 7.417047336241e-012 -1.192305661232e-012 
5.750000000000e-001 -2.742546065249e-012 -2.507725610784e-012 
6.000000000000e-001 -1.922220386626e-011 1.810516158214e-009 
 ZONE T="TIME=4.500000000000e+002"
0.000000000000e+000 2.218789427531e-011 6.668869151128e-015 
2.500000000000e-002 1.818109116090e-011 1.430649411083e-014 
5.000000000000e-002 1.369849372187e-011 2.930801728381e-014 
7.500000000000e-002 1.339617803493e-011 3.949109608709e-014 
1.000000000000e-001 1.065613321932e-011 4.220512637141e-014 
1.250000000000e-001 2.668919492248e-012 4.092942364641e-014 
1.500000000000e-001 -4.977033279380e-012 3.645673365871e-014 
1.750000000000e-001 -7.815184459695e-012 2.977622859347e-014 
2.000000000000e-001 -9.076386240306e-012 2.326167789032e-014 
2.250000000000e-001 -4.763407318911e-012 1.444138912978e-014 
2.500000000000e-001 4.865472393979e-012 3.010750599976e-015 
2.750000000000e-001 5.694531314381e-012 -3.480653820744e-015 
3.000000000000e-001 -3.020026730964e-012 -3.581881411419e-015 
3.250000000000e-001 -9.525694066646e-012 -5.527229298271e-015 
3.500000000000e-001 -8.208228062987e-012 -9.999264494257e-015 
3.750000000000e-001 1.037963761258e-012 -1.797668331624e-014 
4.000000000000e-001 1.816190822455e-011 -3.559640822909e-014 
4.250000000000e-001 3.606465946470e-011 -6.355453672833e-014 
4.500000000000e-001 3.987655848718e-011 -1.097249778765e-013 
4.750000000000e-001 3.161642214073e-011 -1.910523895117e-013 
5.000000000000e-001 2.400093699592e-011 -3.323763718460e-013 
5.250000000000e-001 1.402521162926e-011 -5.861987637415e-013 
5.500000000000e-001 5.802185141157e-012 -1.079413806784e-012 
5.750000000000e-001 -3.715802907796e-012 -2.267431775475e-012 
6.000000000000e-001 -1.933831341493e-011 1.720199320582e-009 
 ZONE T="TIME=5.000000000000e+002"
0.000000000000e+000 1.283582912592e-011 5.291350478480e-015 
2.500000000000e-002 9.778851353684e-012 1.115025414298e-014 
5.000000000000e-002 6.310251704522e-012 2.246066904223e-014 
7.500000000000e-002 5.806593108493e-012 2.998537750918e-014 
1.000000000000e-001 3.450385685718e-012 3.191917399409e-014 
1.250000000000e-001 -3.083488933407e-012 3.076478512217e-014 
1.500000000000e-001 -9.549138945875e-012 2.718167249728e-014 
1.750000000000e-001 -1.167807432479e-011 2.190353850149e-014 
2.000000000000e-001 -1.237692981679e-011 1.658383961790e-014 
2.250000000000e-001 -8.450811539891e-012 9.498196255759e-015 
2.500000000000e-001 2.416219796353e-013 5.013383791357e-016 
2.750000000000e-001 1.662336300560e-012 -4.882989507494e-015 
3.000000000000e-001 -5.108561412156e-012 -5.796909637221e-015 
3.250000000000e-001 -1.013888268477e-011 -8.531461691001e-015 
3.500000000000e-001 -8.448701304591e-012 -1.350780849090e-014 
3.750000000000e-001 1.278795659175e-013 -2.145741298535e-014 
4.000000000000e-001 1.566072044195e-011 -3.714220013065e-014 
4.250000000000e-001 3.188814383386e-011 -6.159510861395e-014 
4.500000000000e-001 3.545762224647e-011 -1.017680670417e-013 
4.750000000000e-001 2.815026898182e-011 -1.719389212601e-013 
5.000000000000e-001 2.131492978467e-011 -2.936822232628e-013 
5.250000000000e-001 1.220474775668e-011 -5.131141947712e-013 
5.500000000000e-001 4.639495898442e-012 -9.419243350138e-013 
5.750000000000e-001 -4.279701217259e-012 -1.978738082792e-012 
6.000000000000e-001 -1.898653350819e-011 1.602298734004e-009 
 ZONE T="TIME=5.500000000000e+002"
0.000000000000e+000 3.698071800845e-012 4.070739378102e-015 
2.500000000000e-002 1.613598489366e-012 8.237140652161e-015 
5.000000000000e-002 -8.156815697880e-013 1.596675136675e-014 
7.500000000000e-002 -1.519605645436e-012 2.093843767780e-014 
1.000000000000e-001 -3.502421526719e-012 2.223885265175e-014 
1.250000000000e-001 -8.566395178777e-012 2.126206685445e-014 
1.500000000000e-001 -1.382627930187e-011 1.853416216254e-014 
1.750000000000e-001 -1.527172012906e-011 1.462262200635e-014 
2.000000000000e-001 -1.543107518686e-011 1.049598195554e-014 
2.250000000000e-001 -1.196127979279e-011 5.224238689167e-015 
2.500000000000e-001 -4.340430915119e-012 -1.123496480794e-015 
2.750000000000e-001 -2.352233631537e-012 -5.086168469973e-015 
3.000000000000e-001 -7.070603593193e-012 -6.555401101543e-015 
3.250000000000e-001 -1.052123881689e-011 -9.985566629152e-015 
3.500000000000e-001 -8.430202644093e-012 -1.546428165774e-014 
3.750000000000e-001 -5.580207295252e-013 -2.332344623728e-014 
4.000000000000e-001 1.325425814399e-011 -3.686179564165e-014 
4.250000000000e-001 2.764180515193e-011 -5.748748605539e-014 
4.500000000000e-001 3.098170749547e-011 -9.120094669243e-014 
4.750000000000e-001 2.479055221645e-011 -1.494282444172e-013 
5.000000000000e-001 1.885792773463e-011 -2.501513024780e-013 
5.250000000000e-001 1.071150110414e-011 -4.325365217721e-013 
5.500000000000e-001 3.831446440204e-012 -7.917511656725e-013 
5.750000000000e-001 -4.466115752538e-012 -1.664710100623e-012 
6.000000000000e-001 -1.814922668381e-011 1.466134067826e-009 
 ZONE T="TIME=6.000000000000e+002"
0.000000000000e+000 -7.350894808412e-013 3.081487798201e-015 
2.500000000000e-002 -2.312677252336e-012 6.309265864608e-015 
5.000000000000e-002 -4.197613309855e-012 1.232965602502e-014 
7.500000000000e-002 -4.965538113508e-012 1.612394704516e-014 
1.000000000000e-001 -6.662339552458e-012 1.693305378152e-014 
1.250000000000e-001 -1.081244891252e-011 1.603422673065e-014 
1.500000000000e-001 -1.526636994994e-011 1.382554756320e-014 
1.750000000000e-001 -1.626718257023e-011 1.065417740028e-014 
2.000000000000e-001 -1.611382742351e-011 7.296293729194e-015 
2.250000000000e-001 -1.287307289892e-011 2.932887436255e-015 
2.500000000000e-001 -5.875491289043e-012 -2.496021122044e-015 
2.750000000000e-001 -3.694976141062e-012 -6.163367025061e-015 
3.000000000000e-001 -7.450491171201e-012 -7.845095364875e-015 
3.250000000000e-001 -1.020187095081e-011 -1.111078587843e-014 
3.500000000000e-001 -8.070606249784e-012 -1.609417281246e-014 
3.750000000000e-001 -7.762834168229e-013 -2.322491691529e-014 
4.000000000000e-001 1.189488012781e-011 -3.531745479730e-014 
4.250000000000e-001 2.510980166638e-011 -5.358127788286e-014 
4.500000000000e-001 2.822491054847e-011 -8.322431764591e-014 
4.750000000000e-001 2.260367938654e-011 -1.343343658368e-013 
5.000000000000e-001 1.718936286374e-011 -2.229014652344e-013 
5.250000000000e-001 9.671921606521e-012 -3.835370969419e-013 
5.500000000000e-001 3.311076430323e-012 -7.002874261257e-013 
5.750000000000e-001 -4.435524160696e-012 -1.471310465482e-012 
6.000000000000e-001 -1.727258595556e-011 1.379451632737e-009 
 ZONE T="TIME=6.500000000000e+002"
0.000000000000e+000 -1.878176564557e-012 2.396722655830e-015 
2.500000000000e-002 -3.277883954090e-012 5.148743452650e-015 
5.000000000000e-002 -4.960875266493e-012 1.047040952246e-014 
7.500000000000e-002 -5.688461395674e-012 1.381515441339e-014 
1.000000000000e-001 -7.180907880760e-012 1.428652534010e-014 
1.250000000000e-001 -1.085874168208e-011 1.338483843754e-014 
1.500000000000e-001 -1.484366153979e-011 1.142369256604e-014 
1.750000000000e-001 -1.560530622890e-011 8.572280898625e-015 
2.000000000000e-001 -1.531995671055e-011 5.605934471943e-015 
2.250000000000e-001 -1.216593451823e-011 1.567713940983e-015 
2.500000000000e-001 -5.484601822537e-012 -3.788364090925e-015 
2.750000000000e-001 -3.366945683023e-012 -7.632044687202e-015 
3.000000000000e-001 -6.893257328346e-012 -9.360188597216e-015 
3.250000000000e-001 -9.509661914337e-012 -1.216666182232e-014 
3.500000000000e-001 -7.523559349251e-012 -1.634893308330e-014 
3.750000000000e-001 -6.351977518503e-013 -2.261099036015e-014 
4.000000000000e-001 1.139003157554e-011 -3.375146586885e-014 
4.250000000000e-001 2.396723523399e-011 -5.064295585256e-014 
4.500000000000e-001 2.690593979147e-011 -7.795384622405e-014 
4.750000000000e-001 2.150029957283e-011 -1.252464347415e-013 
5.000000000000e-001 1.633441524219e-011 -2.075056881336e-013 
5.250000000000e-001 9.174506506962e-012 -3.566693775765e-013 
5.500000000000e-001 3.151860927669e-012 -6.501385712126e-013 
5.750000000000e-001 -4.182063121943e-012 -1.364098453943e-012 
6.000000000000e-001 -1.639548682037e-011 1.329249235400e-009 
 ZONE T="TIME=7.000000000000e+002"
0.000000000000e+000 -4.908442518060e-012 1.907816615285e-015 
2.500000000000e-002 -5.912662850042e-012 4.009922182950e-015 
5.000000000000e-002 -7.156268660903e-012 7.993128874962e-015 
7.500000000000e-002 -7.897911281352e-012 1.042811158036e-014 
1.000000000000e-001 -9.177659403910e-012 1.071104262803e-014 
1.250000000000e-001 -1.217683387020e-011 9.900289016407e-015 
1.500000000000e-001 -1.555179984620e-011 8.258070446278e-015 
1.750000000000e-001 -1.602400743392e-011 5.922432301936e-015 
2.000000000000e-001 -1.554249005569e-011 3.421418677164e-015 
2.250000000000e-001 -1.263990667403e-011 8.528205957196e-017 
2.500000000000e-001 -6.576355302101e-012 -4.214202880185e-015 
2.750000000000e-001 -4.362611766728e-012 -7.381571497670e-015 
3.000000000000e-001 -7.066443501606e-012 -9.094519145318e-015 
3.250000000000e-001 -9.032037848302e-012 -1.186327598370e-014 
3.500000000000e-001 -6.951913266967e-012 -1.587974065737e-014 
3.750000000000e-001 -4.816190407565e-013 -2.170641838496e-014 
4.000000000000e-001 1.061353561245e-011 -3.155795783205e-014 
4.250000000000e-001 2.218034815547e-011 -4.640446015896e-014 
4.500000000000e-001 2.498017109707e-011 -7.042585918347e-014 
4.750000000000e-001 2.017264623473e-011 -1.118248346419e-013 
5.000000000000e-001 1.550918983407e-011 -1.837173919917e-013 
5.250000000000e-001 8.891377277832e-012 -3.144077611148e-013 
5.500000000000e-001 3.242843889445e-012 -5.726733996988e-013 
5.750000000000e-001 -3.707828541601e-012 -1.202710808602e-012 
6.000000000000e-001 -1.522423832104e-011 1.245026700287e-009 
 ZONE T="TIME=7.500000000000e+002"
0.000000000000e+000 -8.971844533737e-012 1.451484328734e-015 
2.500000000000e-002 -9.453454184454e-012 2.864814166332e-015 
5.000000000000e-002 -1.012586488830e-011 5.375403723088e-015 
7.500000000000e-002 -1.092340638415e-011 6.813565692530e-015 
1.000000000000e-001 -1.197774066838e-011 6.963985156142e-015 
1.250000000000e-001 -1.414749271405e-011 6.314168627739e-015 
1.500000000000e-001 -1.679476821405e-011 5.068131685848e-015 
1.750000000000e-001 -1.692779763706e-011 3.357820519891e-015 
2.000000000000e-001 -1.620138612092e-011 1.431882218846e-015 
2.250000000000e-001 -1.363995496250e-011 -1.008176844393e-015 
2.500000000000e-001 -8.374027716128e-012 -3.937296835442e-015 
2.750000000000e-001 -5.976417920061e-012 -6.171929301632e-015 
3.000000000000e-001 -7.523141015574e-012 -7.807874738830e-015 
3.250000000000e-001 -8.567891032123e-012 -1.060154050582e-014 
3.500000000000e-001 -6.304563819107e-012 -1.458552091121e-014 
3.750000000000e-001 -3.305669382887e-013 -2.005584067982e-014 
4.000000000000e-001 9.580535787804e-012 -2.846475285584e-014 
4.250000000000e-001 1.984278350041e-011 -4.093749975092e-014 
4.500000000000e-001 2.248306502038e-011 -6.109085071022e-014 
4.750000000000e-001 1.848136679847e-011 -9.547217163718e-014 
5.000000000000e-001 1.447126890388e-011 -1.549416418562e-013 
5.250000000000e-001 8.535357265754e-012 -2.634843205238e-013 
5.500000000000e-001 3.333723534572e-012 -4.796468243209e-013 
5.750000000000e-001 -3.180727344641e-012 -1.009506684660e-012 
6.000000000000e-001 -1.387653047242e-011 1.137994395059e-009 
 ZONE T="TIME=8.000000000000e+002"
0.000000000000e+000 -9.361264160880e-012 1.076298025065e-015 
2.500000000000e-002 -9.702124368522e-012 2.171269047866e-015 
5.000000000000e-002 -1.021312908290e-011 4.146467012476e-015 
7.500000000000e-002 -1.096582915168e-011 5.248324685992e-015 
1.000000000000e-001 -1.186377988508e-011 5.261058649817e-015 
1.250000000000e-001 -1.365368306887e-011 4.668866129025e-015 
1.500000000000e-001 -1.590221884933e-011 3.619253881159e-015 
1.750000000000e-001 -1.587533983671e-011 2.175484694236e-015 
2.000000000000e-001 -1.507576893026e-011 5.597079734971e-016 
2.250000000000e-001 -1.264652690039e-011 -1.529931535991e-015 
2.500000000000e-001 -7.764024029035e-012 -4.137459582509e-015 
2.750000000000e-001 -5.468910985083e-012 -6.234234461367e-015 
3.000000000000e-001 -6.773436445712e-012 -7.820241972739e-015 
3.250000000000e-001 -7.651790435669e-012 -1.035877629449e-014 
3.500000000000e-001 -5.519345732468e-012 -1.391120554989e-014 
3.750000000000e-001 5.002880196142e-014 -1.881894742083e-014 
4.000000000000e-001 9.264724330468e-012 -2.638374501749e-014 
4.250000000000e-001 1.880064648902e-011 -3.755542955191e-014 
4.500000000000e-001 2.126487667806e-011 -5.550441306915e-014 
4.750000000000e-001 1.755598818954e-011 -8.612916553280e-014 
5.000000000000e-001 1.383838683917e-011 -1.392000631156e-013 
5.250000000000e-001 8.284688917291e-012 -2.361101669091e-013 
5.500000000000e-001 3.403735022455e-012 -4.289978251686e-013 
5.750000000000e-001 -2.719030973001e-012 -9.020172304679e-013 
6.000000000000e-001 -1.276389215112e-011 1.077464241637e-009 
 ZONE T="TIME=8.500000000000e+002"
0.000000000000e+000 -7.338865778970e-012 8.262602031438e-016 
2.500000000000e-002 -7.796912233902e-012 1.819559788251e-015 
5.000000000000e-002 -8.416464758257e-012 3.741795628644e-015 
7.500000000000e-002 -9.049550565519e-012 4.837400309248e-015 
1.000000000000e-001 -9.856286306206e-012 4.736554943905e-015 
1.250000000000e-001 -1.161678935146e-011 4.124206196695e-015 
1.500000000000e-001 -1.374290464049e-011 3.114445278693e-015 
1.750000000000e-001 -1.371090767202e-011 1.702160870874e-015 
2.000000000000e-001 -1.297291999159e-011 1.762530819598e-016 
2.250000000000e-001 -1.054966570477e-011 -1.908862951111e-015 
2.500000000000e-001 -5.772799555632e-012 -4.716879000539e-015 
2.750000000000e-001 -3.761846773591e-012 -7.032991278811e-015 
3.000000000000e-001 -5.412681123325e-012 -8.586033392058e-015 
3.250000000000e-001 -6.583976968949e-012 -1.078839873500e-014 
3.500000000000e-001 -4.727305910075e-012 -1.379322950445e-014 
3.750000000000e-001 5.841037501967e-013 -1.811741267069e-014 
4.000000000000e-001 9.527924214057e-012 -2.520860855338e-014 
4.250000000000e-001 1.880742846097e-011 -3.576247976296e-014 
4.500000000000e-001 2.113489357077e-011 -5.267861125398e-014 
4.750000000000e-001 1.740026115478e-011 -8.175814793185e-014 
5.000000000000e-001 1.373263008909e-011 -1.323921486598e-013 
5.250000000000e-001 8.323679378300e-012 -2.247162684194e-013 
5.500000000000e-001 3.616156370940e-012 -4.076321237492e-013 
5.750000000000e-001 -2.231526474813e-012 -8.552467374344e-013 
6.000000000000e-001 -1.183899848953e-011 1.050879130097e-009 
 ZONE T="TIME=9.000000000000e+002"
0.000000000000e+000 -1.017474074888e-011 6.524059520392e-016 
2.500000000000e-002 -1.023309969705e-011 1.276910405696e-015 
5.000000000000e-002 -1.040770683465e-011 2.358927982975e-015 
7.500000000000e-002 -1.106458408291e-011 2.906232168934e-015 
1.000000000000e-001 -1.171077569690e-011 2.829435680946e-015 
1.250000000000e-001 -1.286412000327e-011 2.368744331890e-015 
1.500000000000e-001 -1.445280027901e-011 1.618703766825e-015 
1.750000000000e-001 -1.420571574928e-011 6.159255633590e-016 
2.000000000000e-001 -1.331861146133e-011 -5.489677558577e-016 
2.250000000000e-001 -1.121630566233e-011 -2.034353032745e-015 
2.500000000000e-001 -7.147415953110e-012 -3.833106780936e-015 
2.750000000000e-001 -5.027704770276e-012 -5.356094304222e-015 
3.000000000000e-001 -5.731806180008e-012 -6.703334411059e-015 
3.250000000000e-001 -6.120843297727e-012 -8.834074675697e-015 
3.500000000000e-001 -4.087434732701e-012 -1.178068599048e-014 
3.750000000000e-001 8.418483942401e-013 -1.581120644699e-014 
4.000000000000e-001 8.815569173262e-012 -2.178502266320e-014 
4.250000000000e-001 1.699879782240e-011 -3.056390721540e-014 
4.500000000000e-001 1.921632660376e-011 -4.468328741439e-014 
4.750000000000e-001 1.620753354984e-011 -6.866326968954e-014 
5.000000000000e-001 1.311324328329e-011 -1.101487937925e-013 