VARIABLES  = "X","Y","Z", "Ki"
ZONE T="0.000000000000e+000s", N=1681, E=1600, F=FEPOINT, ET=QUADRILATERAL
STRANDID=1, SOLUTIONTIME=0.000000000000e+000
0.000000000000e+000 0.000000000000e+000 0.000000000000e+000 -33.1750369141
5.000000000000e-002 0.000000000000e+000 0.000000000000e+000 -33.2218551414
5.000000000000e-002 0.000000000000e+000 2.500000000000e-002 -33.7453345042
0.000000000000e+000 0.000000000000e+000 2.500000000000e-002 -33.9123535218
5.000000000000e-002 0.000000000000e+000 5.000000000000e-002 -33.7916331283
0.000000000000e+000 0.000000000000e+000 5.000000000000e-002 -34.0192463141
5.000000000000e-002 0.000000000000e+000 7.500000000000e-002 -34.0186657443
0.000000000000e+000 0.000000000000e+000 7.500000000000e-002 -34.2436575151
5.000000000000e-002 0.000000000000e+000 1.000000000000e-001 -33.6651164471
0.000000000000e+000 0.000000000000e+000 1.000000000000e-001 -33.8293173766
5.000000000000e-002 0.000000000000e+000 1.250000000000e-001 -33.7873554801
0.000000000000e+000 0.000000000000e+000 1.250000000000e-001 -33.9807575932
5.000000000000e-002 0.000000000000e+000 1.500000000000e-001 -34.0069415382
0.000000000000e+000 0.000000000000e+000 1.500000000000e-001 -34.1020597537
5.000000000000e-002 0.000000000000e+000 1.750000000000e-001 -34.2940427471
0.000000000000e+000 0.000000000000e+000 1.750000000000e-001 -34.4365352116
5.000000000000e-002 0.000000000000e+000 2.000000000000e-001 -34.4760309219
0.000000000000e+000 0.000000000000e+000 2.000000000000e-001 -34.6364099574
5.000000000000e-002 0.000000000000e+000 2.250000000000e-001 -34.4023385903
0.000000000000e+000 0.000000000000e+000 2.250000000000e-001 -34.5178720721
5.000000000000e-002 0.000000000000e+000 2.500000000000e-001 -34.2106676597
0.000000000000e+000 0.000000000000e+000 2.500000000000e-001 -34.2615990475
5.000000000000e-002 0.000000000000e+000 2.750000000000e-001 -34.4729479584
0.000000000000e+000 0.000000000000e+000 2.750000000000e-001 -34.4635622573
5.000000000000e-002 0.000000000000e+000 3.000000000000e-001 -34.3274051786
0.000000000000e+000 0.000000000000e+000 3.000000000000e-001 -34.2926695063
5.000000000000e-002 0.000000000000e+000 3.250000000000e-001 -34.1581430927
0.000000000000e+000 0.000000000000e+000 3.250000000000e-001 -34.2502335642
5.000000000000e-002 0.000000000000e+000 3.500000000000e-001 -33.829526288
0.000000000000e+000 0.000000000000e+000 3.500000000000e-001 -33.8972334118
5.000000000000e-002 0.000000000000e+000 3.750000000000e-001 -34.202976696
0.000000000000e+000 0.000000000000e+000 3.750000000000e-001 -34.2526268568
5.000000000000e-002 0.000000000000e+000 4.000000000000e-001 -34.209235362
0.000000000000e+000 0.000000000000e+000 4.000000000000e-001 -34.2830231492
5.000000000000e-002 0.000000000000e+000 4.250000000000e-001 -33.967210334
0.000000000000e+000 0.000000000000e+000 4.250000000000e-001 -34.0023372789
5.000000000000e-002 0.000000000000e+000 4.500000000000e-001 -33.9295483996
0.000000000000e+000 0.000000000000e+000 4.500000000000e-001 -33.8607574672
5.000000000000e-002 0.000000000000e+000 4.750000000000e-001 -33.820067042
0.000000000000e+000 0.000000000000e+000 4.750000000000e-001 -33.697636654
5.000000000000e-002 0.000000000000e+000 5.000000000000e-001 -34.0908172391
0.000000000000e+000 0.000000000000e+000 5.000000000000e-001 -33.9749948873
5.000000000000e-002 0.000000000000e+000 5.250000000000e-001 -34.1336019615
0.000000000000e+000 0.000000000000e+000 5.250000000000e-001 -34.0272733858
5.000000000000e-002 0.000000000000e+000 5.500000000000e-001 -34.4056310969
0.000000000000e+000 0.000000000000e+000 5.500000000000e-001 -34.3287052139
5.000000000000e-002 0.000000000000e+000 5.750000000000e-001 -34.1989527071
0.000000000000e+000 0.000000000000e+000 5.750000000000e-001 -34.0997795433
5.000000000000e-002 0.000000000000e+000 6.000000000000e-001 -34.0179791204
0.000000000000e+000 0.000000000000e+000 6.000000000000e-001 -33.9024329689
5.000000000000e-002 0.000000000000e+000 6.250000000000e-001 -33.9338376658
0.000000000000e+000 0.000000000000e+000 6.250000000000e-001 -33.9011722665
5.000000000000e-002 0.000000000000e+000 6.500000000000e-001 -34.0563368855
0.000000000000e+000 0.000000000000e+000 6.500000000000e-001 -33.9536699311
5.000000000000e-002 0.000000000000e+000 6.750000000000e-001 -34.0857351657
0.000000000000e+000 0.000000000000e+000 6.750000000000e-001 -34.0282627733
5.000000000000e-002 0.000000000000e+000 7.000000000000e-001 -33.7173918533
0.000000000000e+000 0.000000000000e+000 7.000000000000e-001 -33.6499812365
5.000000000000e-002 0.000000000000e+000 7.250000000000e-001 -33.6467827692
0.000000000000e+000 0.000000000000e+000 7.250000000000e-001 -33.5704396817
5.000000000000e-002 0.000000000000e+000 7.500000000000e-001 -33.4998894573
0.000000000000e+000 0.000000000000e+000 7.500000000000e-001 -33.4981688174
5.000000000000e-002 0.000000000000e+000 7.750000000000e-001 -33.6780353367
0.000000000000e+000 0.000000000000e+000 7.750000000000e-001 -33.6985858933
5.000000000000e-002 0.000000000000e+000 8.000000000000e-001 -33.5432885896
0.000000000000e+000 0.000000000000e+000 8.000000000000e-001 -33.5590548941
5.000000000000e-002 0.000000000000e+000 8.250000000000e-001 -33.8272713248
0.000000000000e+000 0.000000000000e+000 8.250000000000e-001 -33.9220058032
5.000000000000e-002 0.000000000000e+000 8.500000000000e-001 -33.8247806312
0.000000000000e+000 0.000000000000e+000 8.500000000000e-001 -33.8407096281
5.000000000000e-002 0.000000000000e+000 8.750000000000e-001 -33.8591993502
0.000000000000e+000 0.000000000000e+000 8.750000000000e-001 -33.9430339205
5.000000000000e-002 0.000000000000e+000 9.000000000000e-001 -33.9519724556
0.000000000000e+000 0.000000000000e+000 9.000000000000e-001 -34.0352068096
5.000000000000e-002 0.000000000000e+000 9.250000000000e-001 -33.5377528243
0.000000000000e+000 0.000000000000e+000 9.250000000000e-001 -33.6015666518
5.000000000000e-002 0.000000000000e+000 9.500000000000e-001 -33.548692084
0.000000000000e+000 0.000000000000e+000 9.500000000000e-001 -33.6676702908
5.000000000000e-002 0.000000000000e+000 9.750000000000e-001 -33.054985526
0.000000000000e+000 0.000000000000e+000 9.750000000000e-001 -33.2699355725
5.000000000000e-002 0.000000000000e+000 1.000000000000e+000 -33.1439583852
0.000000000000e+000 0.000000000000e+000 1.000000000000e+000 -33.2820683262
1.000000000000e-001 0.000000000000e+000 0.000000000000e+000 -33.1123448145
1.000000000000e-001 0.000000000000e+000 2.500000000000e-002 -33.7444565977
1.000000000000e-001 0.000000000000e+000 5.000000000000e-002 -33.6805988078
1.000000000000e-001 0.000000000000e+000 7.500000000000e-002 -33.8289926272
1.000000000000e-001 0.000000000000e+000 1.000000000000e-001 -33.5006492644
1.000000000000e-001 0.000000000000e+000 1.250000000000e-001 -33.6505316894
1.000000000000e-001 0.000000000000e+000 1.500000000000e-001 -33.9365610057
1.000000000000e-001 0.000000000000e+000 1.750000000000e-001 -34.1493025191
1.000000000000e-001 0.000000000000e+000 2.000000000000e-001 -34.2857032903
1.000000000000e-001 0.000000000000e+000 2.250000000000e-001 -34.2218383524
1.000000000000e-001 0.000000000000e+000 2.500000000000e-001 -34.0440248625
1.000000000000e-001 0.000000000000e+000 2.750000000000e-001 -34.3669102509
1.000000000000e-001 0.000000000000e+000 3.000000000000e-001 -34.2364157431
1.000000000000e-001 0.000000000000e+000 3.250000000000e-001 -34.0655667752
1.000000000000e-001 0.000000000000e+000 3.500000000000e-001 -33.8000098526
1.000000000000e-001 0.000000000000e+000 3.750000000000e-001 -34.1479086434
1.000000000000e-001 0.000000000000e+000 4.000000000000e-001 -34.119381033
1.000000000000e-001 0.000000000000e+000 4.250000000000e-001 -33.9439059678
1.000000000000e-001 0.000000000000e+000 4.500000000000e-001 -33.930165709
1.000000000000e-001 0.000000000000e+000 4.750000000000e-001 -33.8847806967
1.000000000000e-001 0.000000000000e+000 5.000000000000e-001 -34.0339862866
1.000000000000e-001 0.000000000000e+000 5.250000000000e-001 -34.0167408311
1.000000000000e-001 0.000000000000e+000 5.500000000000e-001 -34.2302165872
1.000000000000e-001 0.000000000000e+000 5.750000000000e-001 -34.0288209272
1.000000000000e-001 0.000000000000e+000 6.000000000000e-001 -34.0010612364
1.000000000000e-001 0.000000000000e+000 6.250000000000e-001 -33.8818612316
1.000000000000e-001 0.000000000000e+000 6.500000000000e-001 -33.9487711267
1.000000000000e-001 0.000000000000e+000 6.750000000000e-001 -34.0036849692
1.000000000000e-001 0.000000000000e+000 7.000000000000e-001 -33.70893682
1.000000000000e-001 0.000000000000e+000 7.250000000000e-001 -33.6753682885
1.000000000000e-001 0.000000000000e+000 7.500000000000e-001 -33.4767810389
1.000000000000e-001 0.000000000000e+000 7.750000000000e-001 -33.6520379094
1.000000000000e-001 0.000000000000e+000 8.000000000000e-001 -33.4830430745
1.000000000000e-001 0.000000000000e+000 8.250000000000e-001 -33.7900427809
1.000000000000e-001 0.000000000000e+000 8.500000000000e-001 -33.8413126387
1.000000000000e-001 0.000000000000e+000 8.750000000000e-001 -33.7918953401
1.000000000000e-001 0.000000000000e+000 9.000000000000e-001 -33.9167191375
1.000000000000e-001 0.000000000000e+000 9.250000000000e-001 -33.5183110822
1.000000000000e-001 0.000000000000e+000 9.500000000000e-001 -33.5540639271
1.000000000000e-001 0.000000000000e+000 9.750000000000e-001 -33.051034161
1.000000000000e-001 0.000000000000e+000 1.000000000000e+000 -33.124864698
1.500000000000e-001 0.000000000000e+000 0.000000000000e+000 -33.0722364862
1.500000000000e-001 0.000000000000e+000 2.500000000000e-002 -33.4748251245
1.500000000000e-001 0.000000000000e+000 5.000000000000e-002 -33.4622518175
1.500000000000e-001 0.000000000000e+000 7.500000000000e-002 -33.63754774
1.500000000000e-001 0.000000000000e+000 1.000000000000e-001 -33.2634797043
1.500000000000e-001 0.000000000000e+000 1.250000000000e-001 -33.5213276027
1.500000000000e-001 0.000000000000e+000 1.500000000000e-001 -33.8370792796
1.500000000000e-001 0.000000000000e+000 1.750000000000e-001 -34.0682276283
1.500000000000e-001 0.000000000000e+000 2.000000000000e-001 -34.1925191753
1.500000000000e-001 0.000000000000e+000 2.250000000000e-001 -34.2141000923
1.500000000000e-001 0.000000000000e+000 2.500000000000e-001 -34.0643158591
1.500000000000e-001 0.000000000000e+000 2.750000000000e-001 -34.4224791655
1.500000000000e-001 0.000000000000e+000 3.000000000000e-001 -34.3058376382
1.500000000000e-001 0.000000000000e+000 3.250000000000e-001 -34.1757259552
1.500000000000e-001 0.000000000000e+000 3.500000000000e-001 -33.9987044666
1.500000000000e-001 0.000000000000e+000 3.750000000000e-001 -34.3511609989
1.500000000000e-001 0.000000000000e+000 4.000000000000e-001 -34.3649840907
1.500000000000e-001 0.000000000000e+000 4.250000000000e-001 -34.2513615614
1.500000000000e-001 0.000000000000e+000 4.500000000000e-001 -34.3824759827
1.500000000000e-001 0.000000000000e+000 4.750000000000e-001 -34.4502301148
1.500000000000e-001 0.000000000000e+000 5.000000000000e-001 -34.6486896839
1.500000000000e-001 0.000000000000e+000 5.250000000000e-001 -34.5998095608
1.500000000000e-001 0.000000000000e+000 5.500000000000e-001 -34.7368797802
1.500000000000e-001 0.000000000000e+000 5.750000000000e-001 -34.4696125516
1.500000000000e-001 0.000000000000e+000 6.000000000000e-001 -34.4536510823
1.500000000000e-001 0.000000000000e+000 6.250000000000e-001 -34.2317858948
1.500000000000e-001 0.000000000000e+000 6.500000000000e-001 -34.2705127873
1.500000000000e-001 0.000000000000e+000 6.750000000000e-001 -34.2537228513
1.500000000000e-001 0.000000000000e+000 7.000000000000e-001 -33.9607181951
1.500000000000e-001 0.000000000000e+000 7.250000000000e-001 -33.929694564
1.500000000000e-001 0.000000000000e+000 7.500000000000e-001 -33.6629480869
1.500000000000e-001 0.000000000000e+000 7.750000000000e-001 -33.8104605666
1.500000000000e-001 0.000000000000e+000 8.000000000000e-001 -33.6284618462
1.500000000000e-001 0.000000000000e+000 8.250000000000e-001 -33.9861599517
1.500000000000e-001 0.000000000000e+000 8.500000000000e-001 -34.0537616333
1.500000000000e-001 0.000000000000e+000 8.750000000000e-001 -34.0152435667
1.500000000000e-001 0.000000000000e+000 9.000000000000e-001 -34.0726661193
1.500000000000e-001 0.000000000000e+000 9.250000000000e-001 -33.6534963947
1.500000000000e-001 0.000000000000e+000 9.500000000000e-001 -33.7326214962
1.500000000000e-001 0.000000000000e+000 9.750000000000e-001 -33.2118239875
1.500000000000e-001 0.000000000000e+000 1.000000000000e+000 -33.2254003079
2.000000000000e-001 0.000000000000e+000 0.000000000000e+000 -33.1341569062
2.000000000000e-001 0.000000000000e+000 2.500000000000e-002 -33.3703997541
2.000000000000e-001 0.000000000000e+000 5.000000000000e-002 -33.3916520868
2.000000000000e-001 0.000000000000e+000 7.500000000000e-002 -33.6097131242
2.000000000000e-001 0.000000000000e+000 1.000000000000e-001 -33.2632741086
2.000000000000e-001 0.000000000000e+000 1.250000000000e-001 -33.4724032753
2.000000000000e-001 0.000000000000e+000 1.500000000000e-001 -33.7247308906
2.000000000000e-001 0.000000000000e+000 1.750000000000e-001 -33.9482507306
2.000000000000e-001 0.000000000000e+000 2.000000000000e-001 -34.0815765844
2.000000000000e-001 0.000000000000e+000 2.250000000000e-001 -34.106753823
2.000000000000e-001 0.000000000000e+000 2.500000000000e-001 -33.9638460126
2.000000000000e-001 0.000000000000e+000 2.750000000000e-001 -34.3937895619
2.000000000000e-001 0.000000000000e+000 3.000000000000e-001 -34.309364835
2.000000000000e-001 0.000000000000e+000 3.250000000000e-001 -34.1268600481
2.000000000000e-001 0.000000000000e+000 3.500000000000e-001 -34.0022431969
2.000000000000e-001 0.000000000000e+000 3.750000000000e-001 -34.1559769164
2.000000000000e-001 0.000000000000e+000 4.000000000000e-001 -34.1215545114
2.000000000000e-001 0.000000000000e+000 4.250000000000e-001 -33.9256124627
2.000000000000e-001 0.000000000000e+000 4.500000000000e-001 -34.1783056972
2.000000000000e-001 0.000000000000e+000 4.750000000000e-001 -34.2150081028
2.000000000000e-001 0.000000000000e+000 5.000000000000e-001 -34.4072512909
2.000000000000e-001 0.000000000000e+000 5.250000000000e-001 -34.4197595608
2.000000000000e-001 0.000000000000e+000 5.500000000000e-001 -34.6818810783
2.000000000000e-001 0.000000000000e+000 5.750000000000e-001 -34.3918607969
2.000000000000e-001 0.000000000000e+000 6.000000000000e-001 -34.3678690543
2.000000000000e-001 0.000000000000e+000 6.250000000000e-001 -34.1209067719
2.000000000000e-001 0.000000000000e+000 6.500000000000e-001 -34.1114849741
2.000000000000e-001 0.000000000000e+000 6.750000000000e-001 -34.2075153284
2.000000000000e-001 0.000000000000e+000 7.000000000000e-001 -33.9272797734
2.000000000000e-001 0.000000000000e+000 7.250000000000e-001 -33.869647841
2.000000000000e-001 0.000000000000e+000 7.500000000000e-001 -33.6132566886
2.000000000000e-001 0.000000000000e+000 7.750000000000e-001 -33.8281509481
2.000000000000e-001 0.000000000000e+000 8.000000000000e-001 -33.6439595655
2.000000000000e-001 0.000000000000e+000 8.250000000000e-001 -33.9878685537
2.000000000000e-001 0.000000000000e+000 8.500000000000e-001 -34.0492163615
2.000000000000e-001 0.000000000000e+000 8.750000000000e-001 -34.0863918296
2.000000000000e-001 0.000000000000e+000 9.000000000000e-001 -34.0762270931
2.000000000000e-001 0.000000000000e+000 9.250000000000e-001 -33.7076359773
2.000000000000e-001 0.000000000000e+000 9.500000000000e-001 -33.8387798529
2.000000000000e-001 0.000000000000e+000 9.750000000000e-001 -33.3333399963
2.000000000000e-001 0.000000000000e+000 1.000000000000e+000 -33.4034608613
2.500000000000e-001 0.000000000000e+000 0.000000000000e+000 -33.198851066
2.500000000000e-001 0.000000000000e+000 2.500000000000e-002 -32.9027534703
2.500000000000e-001 0.000000000000e+000 5.000000000000e-002 -32.9628450033
2.500000000000e-001 0.000000000000e+000 7.500000000000e-002 -33.0460001372
2.500000000000e-001 0.000000000000e+000 1.000000000000e-001 -32.7777635449
2.500000000000e-001 0.000000000000e+000 1.250000000000e-001 -33.006574888
2.500000000000e-001 0.000000000000e+000 1.500000000000e-001 -33.1786838584
2.500000000000e-001 0.000000000000e+000 1.750000000000e-001 -33.4023705606
2.500000000000e-001 0.000000000000e+000 2.000000000000e-001 -33.5311749404
2.500000000000e-001 0.000000000000e+000 2.250000000000e-001 -33.6045723529
2.500000000000e-001 0.000000000000e+000 2.500000000000e-001 -33.5795712606
2.500000000000e-001 0.000000000000e+000 2.750000000000e-001 -34.1003121492
2.500000000000e-001 0.000000000000e+000 3.000000000000e-001 -34.1342070018
2.500000000000e-001 0.000000000000e+000 3.250000000000e-001 -33.8959511716
2.500000000000e-001 0.000000000000e+000 3.500000000000e-001 -33.8177742993
2.500000000000e-001 0.000000000000e+000 3.750000000000e-001 -33.9670894467
2.500000000000e-001 0.000000000000e+000 4.000000000000e-001 -33.9411901898
2.500000000000e-001 0.000000000000e+000 4.250000000000e-001 -33.7223431489
2.500000000000e-001 0.000000000000e+000 4.500000000000e-001 -33.980502477
2.500000000000e-001 0.000000000000e+000 4.750000000000e-001 -33.9530852039
2.500000000000e-001 0.000000000000e+000 5.000000000000e-001 -34.1838011668
2.500000000000e-001 0.000000000000e+000 5.250000000000e-001 -34.1844176691
2.500000000000e-001 0.000000000000e+000 5.500000000000e-001 -34.4612669095
2.500000000000e-001 0.000000000000e+000 5.750000000000e-001 -34.1258839751
2.500000000000e-001 0.000000000000e+000 6.000000000000e-001 -34.1294943693
2.500000000000e-001 0.000000000000e+000 6.250000000000e-001 -33.9501286811
2.500000000000e-001 0.000000000000e+000 6.500000000000e-001 -33.9453183401
2.500000000000e-001 0.000000000000e+000 6.750000000000e-001 -33.9757566494
2.500000000000e-001 0.000000000000e+000 7.000000000000e-001 -33.7537784862
2.500000000000e-001 0.000000000000e+000 7.250000000000e-001 -33.7534292221
2.500000000000e-001 0.000000000000e+000 7.500000000000e-001 -33.4945752619
2.500000000000e-001 0.000000000000e+000 7.750000000000e-001 -33.5892546368
2.500000000000e-001 0.000000000000e+000 8.000000000000e-001 -33.4101760902
2.500000000000e-001 0.000000000000e+000 8.250000000000e-001 -33.8044576503
2.500000000000e-001 0.000000000000e+000 8.500000000000e-001 -33.8110421654
2.500000000000e-001 0.000000000000e+000 8.750000000000e-001 -33.8011018072
2.500000000000e-001 0.000000000000e+000 9.000000000000e-001 -33.7799667112
2.500000000000e-001 0.000000000000e+000 9.250000000000e-001 -33.4675681742
2.500000000000e-001 0.000000000000e+000 9.500000000000e-001 -33.6712028979
2.500000000000e-001 0.000000000000e+000 9.750000000000e-001 -33.2443915648
2.500000000000e-001 0.000000000000e+000 1.000000000000e+000 -33.3155480157
3.000000000000e-001 0.000000000000e+000 0.000000000000e+000 -33.2109958553
3.000000000000e-001 0.000000000000e+000 2.500000000000e-002 -32.7181683524
3.000000000000e-001 0.000000000000e+000 5.000000000000e-002 -32.7058170773
3.000000000000e-001 0.000000000000e+000 7.500000000000e-002 -32.9424676753
3.000000000000e-001 0.000000000000e+000 1.000000000000e-001 -32.7208619031
3.000000000000e-001 0.000000000000e+000 1.250000000000e-001 -32.8882314392
3.000000000000e-001 0.000000000000e+000 1.500000000000e-001 -32.9896213815
3.000000000000e-001 0.000000000000e+000 1.750000000000e-001 -33.2123096906
3.000000000000e-001 0.000000000000e+000 2.000000000000e-001 -33.3554256499
3.000000000000e-001 0.000000000000e+000 2.250000000000e-001 -33.4368509653
3.000000000000e-001 0.000000000000e+000 2.500000000000e-001 -33.4782587293
3.000000000000e-001 0.000000000000e+000 2.750000000000e-001 -33.9713953912
3.000000000000e-001 0.000000000000e+000 3.000000000000e-001 -33.9752949635
3.000000000000e-001 0.000000000000e+000 3.250000000000e-001 -33.7849851977
3.000000000000e-001 0.000000000000e+000 3.500000000000e-001 -33.7400963693
3.000000000000e-001 0.000000000000e+000 3.750000000000e-001 -33.8965036544
3.000000000000e-001 0.000000000000e+000 4.000000000000e-001 -33.8160500125
3.000000000000e-001 0.000000000000e+000 4.250000000000e-001 -33.5971142146
3.000000000000e-001 0.000000000000e+000 4.500000000000e-001 -33.7669501586
3.000000000000e-001 0.000000000000e+000 4.750000000000e-001 -33.6426271258
3.000000000000e-001 0.000000000000e+000 5.000000000000e-001 -33.7706257824
3.000000000000e-001 0.000000000000e+000 5.250000000000e-001 -33.810467322
3.000000000000e-001 0.000000000000e+000 5.500000000000e-001 -34.0606770895
3.000000000000e-001 0.000000000000e+000 5.750000000000e-001 -33.7678821831
3.000000000000e-001 0.000000000000e+000 6.000000000000e-001 -33.7461086717
3.000000000000e-001 0.000000000000e+000 6.250000000000e-001 -33.6093002942
3.000000000000e-001 0.000000000000e+000 6.500000000000e-001 -33.5866100066
3.000000000000e-001 0.000000000000e+000 6.750000000000e-001 -33.6154403356
3.000000000000e-001 0.000000000000e+000 7.000000000000e-001 -33.5546688177
3.000000000000e-001 0.000000000000e+000 7.250000000000e-001 -33.5627444405
3.000000000000e-001 0.000000000000e+000 7.500000000000e-001 -33.3080955837
3.000000000000e-001 0.000000000000e+000 7.750000000000e-001 -33.4679110434
3.000000000000e-001 0.000000000000e+000 8.000000000000e-001 -33.3499147588
3.000000000000e-001 0.000000000000e+000 8.250000000000e-001 -33.7726275075
3.000000000000e-001 0.000000000000e+000 8.500000000000e-001 -33.9053143773
3.000000000000e-001 0.000000000000e+000 8.750000000000e-001 -34.0451210383
3.000000000000e-001 0.000000000000e+000 9.000000000000e-001 -33.9420491303
3.000000000000e-001 0.000000000000e+000 9.250000000000e-001 -33.6103650926
3.000000000000e-001 0.000000000000e+000 9.500000000000e-001 -33.7301391993
3.000000000000e-001 0.000000000000e+000 9.750000000000e-001 -33.2913140899
3.000000000000e-001 0.000000000000e+000 1.000000000000e+000 -33.2752957065
3.500000000000e-001 0.000000000000e+000 0.000000000000e+000 -33.2263520038
3.500000000000e-001 0.000000000000e+000 2.500000000000e-002 -32.7028085048
3.500000000000e-001 0.000000000000e+000 5.000000000000e-002 -32.6653972172
3.500000000000e-001 0.000000000000e+000 7.500000000000e-002 -32.8488474029
3.500000000000e-001 0.000000000000e+000 1.000000000000e-001 -32.6834849879
3.500000000000e-001 0.000000000000e+000 1.250000000000e-001 -32.8200754423
3.500000000000e-001 0.000000000000e+000 1.500000000000e-001 -32.8278169264
3.500000000000e-001 0.000000000000e+000 1.750000000000e-001 -33.0776725047
3.500000000000e-001 0.000000000000e+000 2.000000000000e-001 -33.2492570079
3.500000000000e-001 0.000000000000e+000 2.250000000000e-001 -33.3902658593
3.500000000000e-001 0.000000000000e+000 2.500000000000e-001 -33.3676494445
3.500000000000e-001 0.000000000000e+000 2.750000000000e-001 -33.8583498051
3.500000000000e-001 0.000000000000e+000 3.000000000000e-001 -33.7972407617
3.500000000000e-001 0.000000000000e+000 3.250000000000e-001 -33.6419692565
3.500000000000e-001 0.000000000000e+000 3.500000000000e-001 -33.6090613349
3.500000000000e-001 0.000000000000e+000 3.750000000000e-001 -33.8018267914
3.500000000000e-001 0.000000000000e+000 4.000000000000e-001 -33.729712919
3.500000000000e-001 0.000000000000e+000 4.250000000000e-001 -33.4406198093
3.500000000000e-001 0.000000000000e+000 4.500000000000e-001 -33.607845913
3.500000000000e-001 0.000000000000e+000 4.750000000000e-001 -33.5188600812
3.500000000000e-001 0.000000000000e+000 5.000000000000e-001 -33.5517381379
3.500000000000e-001 0.000000000000e+000 5.250000000000e-001 -33.6405245546
3.500000000000e-001 0.000000000000e+000 5.500000000000e-001 -33.8693077291
3.500000000000e-001 0.000000000000e+000 5.750000000000e-001 -33.5764174573
3.500000000000e-001 0.000000000000e+000 6.000000000000e-001 -33.4111767502
3.500000000000e-001 0.000000000000e+000 6.250000000000e-001 -33.482840686
3.500000000000e-001 0.000000000000e+000 6.500000000000e-001 -33.5290486634
3.500000000000e-001 0.000000000000e+000 6.750000000000e-001 -33.6014389081
3.500000000000e-001 0.000000000000e+000 7.000000000000e-001 -33.4895097788
3.500000000000e-001 0.000000000000e+000 7.250000000000e-001 -33.5924996407
3.500000000000e-001 0.000000000000e+000 7.500000000000e-001 -33.2779236475
3.500000000000e-001 0.000000000000e+000 7.750000000000e-001 -33.3097598912
3.500000000000e-001 0.000000000000e+000 8.000000000000e-001 -33.2478089237
3.500000000000e-001 0.000000000000e+000 8.250000000000e-001 -33.5625484716
3.500000000000e-001 0.000000000000e+000 8.500000000000e-001 -33.7086089601
3.500000000000e-001 0.000000000000e+000 8.750000000000e-001 -33.8236823399
3.500000000000e-001 0.000000000000e+000 9.000000000000e-001 -33.7092248434
3.500000000000e-001 0.000000000000e+000 9.250000000000e-001 -33.4292505488
3.500000000000e-001 0.000000000000e+000 9.500000000000e-001 -33.7141372506
3.500000000000e-001 0.000000000000e+000 9.750000000000e-001 -33.3615051185
3.500000000000e-001 0.000000000000e+000 1.000000000000e+000 -33.3416124995
4.000000000000e-001 0.000000000000e+000 0.000000000000e+000 -33.3168688038
4.000000000000e-001 0.000000000000e+000 2.500000000000e-002 -32.7738207805
4.000000000000e-001 0.000000000000e+000 5.000000000000e-002 -32.6872990283
4.000000000000e-001 0.000000000000e+000 7.500000000000e-002 -32.8639188635
4.000000000000e-001 0.000000000000e+000 1.000000000000e-001 -32.7211695566
4.000000000000e-001 0.000000000000e+000 1.250000000000e-001 -32.7563876084
4.000000000000e-001 0.000000000000e+000 1.500000000000e-001 -32.6770627954
4.000000000000e-001 0.000000000000e+000 1.750000000000e-001 -32.944694976
4.000000000000e-001 0.000000000000e+000 2.000000000000e-001 -33.135227727
4.000000000000e-001 0.000000000000e+000 2.250000000000e-001 -33.253814747
4.000000000000e-001 0.000000000000e+000 2.500000000000e-001 -33.2601098807
4.000000000000e-001 0.000000000000e+000 2.750000000000e-001 -33.7129193544
4.000000000000e-001 0.000000000000e+000 3.000000000000e-001 -33.6701250679
4.000000000000e-001 0.000000000000e+000 3.250000000000e-001 -33.5704780249
4.000000000000e-001 0.000000000000e+000 3.500000000000e-001 -33.4474950765
4.000000000000e-001 0.000000000000e+000 3.750000000000e-001 -33.6903218594
4.000000000000e-001 0.000000000000e+000 4.000000000000e-001 -33.6322840129
4.000000000000e-001 0.000000000000e+000 4.250000000000e-001 -33.4433596807
4.000000000000e-001 0.000000000000e+000 4.500000000000e-001 -33.5948043249
4.000000000000e-001 0.000000000000e+000 4.750000000000e-001 -33.4913586262
4.000000000000e-001 0.000000000000e+000 5.000000000000e-001 -33.5024455676
4.000000000000e-001 0.000000000000e+000 5.250000000000e-001 -33.5530796255
4.000000000000e-001 0.000000000000e+000 5.500000000000e-001 -33.7803456471
4.000000000000e-001 0.000000000000e+000 5.750000000000e-001 -33.4995766101
4.000000000000e-001 0.000000000000e+000 6.000000000000e-001 -33.4458292347
4.000000000000e-001 0.000000000000e+000 6.250000000000e-001 -33.5113258075
4.000000000000e-001 0.000000000000e+000 6.500000000000e-001 -33.6659535551
4.000000000000e-001 0.000000000000e+000 6.750000000000e-001 -33.7357009125
4.000000000000e-001 0.000000000000e+000 7.000000000000e-001 -33.6641894923
4.000000000000e-001 0.000000000000e+000 7.250000000000e-001 -33.7575849791
4.000000000000e-001 0.000000000000e+000 7.500000000000e-001 -33.3781621658
4.000000000000e-001 0.000000000000e+000 7.750000000000e-001 -33.3821775662
4.000000000000e-001 0.000000000000e+000 8.000000000000e-001 -33.2466021787
4.000000000000e-001 0.000000000000e+000 8.250000000000e-001 -33.5147665273
4.000000000000e-001 0.000000000000e+000 8.500000000000e-001 -33.5725820888
4.000000000000e-001 0.000000000000e+000 8.750000000000e-001 -33.6876538513
4.000000000000e-001 0.000000000000e+000 9.000000000000e-001 -33.6467768966
4.000000000000e-001 0.000000000000e+000 9.250000000000e-001 -33.3770715131
4.000000000000e-001 0.000000000000e+000 9.500000000000e-001 -33.599161044
4.000000000000e-001 0.000000000000e+000 9.750000000000e-001 -33.2771975832
4.000000000000e-001 0.000000000000e+000 1.000000000000e+000 -33.1986594172
4.500000000000e-001 0.000000000000e+000 0.000000000000e+000 -33.1943059588
4.500000000000e-001 0.000000000000e+000 2.500000000000e-002 -32.8342928148
4.500000000000e-001 0.000000000000e+000 5.000000000000e-002 -32.7760801181
4.500000000000e-001 0.000000000000e+000 7.500000000000e-002 -32.9031655981
4.500000000000e-001 0.000000000000e+000 1.000000000000e-001 -32.7878281153
4.500000000000e-001 0.000000000000e+000 1.250000000000e-001 -32.91594472
4.500000000000e-001 0.000000000000e+000 1.500000000000e-001 -32.8606524218
4.500000000000e-001 0.000000000000e+000 1.750000000000e-001 -33.0668702234
4.500000000000e-001 0.000000000000e+000 2.000000000000e-001 -33.1700958955
4.500000000000e-001 0.000000000000e+000 2.250000000000e-001 -33.2199777953
4.500000000000e-001 0.000000000000e+000 2.500000000000e-001 -33.2375984168
4.500000000000e-001 0.000000000000e+000 2.750000000000e-001 -33.5303960735
4.500000000000e-001 0.000000000000e+000 3.000000000000e-001 -33.5419350255
4.500000000000e-001 0.000000000000e+000 3.250000000000e-001 -33.4615300374
4.500000000000e-001 0.000000000000e+000 3.500000000000e-001 -33.4068864595
4.500000000000e-001 0.000000000000e+000 3.750000000000e-001 -33.5680400982
4.500000000000e-001 0.000000000000e+000 4.000000000000e-001 -33.5654724374
4.500000000000e-001 0.000000000000e+000 4.250000000000e-001 -33.397875577
4.500000000000e-001 0.000000000000e+000 4.500000000000e-001 -33.6093366717
4.500000000000e-001 0.000000000000e+000 4.750000000000e-001 -33.5975571917
4.500000000000e-001 0.000000000000e+000 5.000000000000e-001 -33.6609737495
4.500000000000e-001 0.000000000000e+000 5.250000000000e-001 -33.6549727994
4.500000000000e-001 0.000000000000e+000 5.500000000000e-001 -33.8218766985
4.500000000000e-001 0.000000000000e+000 5.750000000000e-001 -33.6349364269
4.500000000000e-001 0.000000000000e+000 6.000000000000e-001 -33.621249118
4.500000000000e-001 0.000000000000e+000 6.250000000000e-001 -33.6653555117
4.500000000000e-001 0.000000000000e+000 6.500000000000e-001 -33.9145322906
4.500000000000e-001 0.000000000000e+000 6.750000000000e-001 -33.8431783608
4.500000000000e-001 0.000000000000e+000 7.000000000000e-001 -33.8001232766