 TITLE = "Profiles along polylines"
 VARIABLES = "DIST" "VELOCITY_X2" "VELOCITY_Y2" 
 ZONE T="TIME=0.000000000000e+00"
0.000000000000e+00 0.000000000000e+00 0.000000000000e+00 
2.500000000000e-02 0.000000000000e+00 0.000000000000e+00 
5.000000000000e-02 0.000000000000e+00 0.000000000000e+00 
7.500000000000e-02 0.000000000000e+00 0.000000000000e+00 
1.000000000000e-01 0.000000000000e+00 0.000000000000e+00 
1.250000000000e-01 0.000000000000e+00 0.000000000000e+00 
1.500000000000e-01 0.000000000000e+00 0.000000000000e+00 
1.750000000000e-01 0.000000000000e+00 0.000000000000e+00 
2.000000000000e-01 0.000000000000e+00 0.000000000000e+00 
2.250000000000e-01 0.000000000000e+00 0.000000000000e+00 
2.500000000000e-01 0.000000000000e+00 0.000000000000e+00 
2.750000000000e-01 0.000000000000e+00 0.000000000000e+00 
3.000000000000e-01 0.000000000000e+00 0.000000000000e+00 
3.250000000000e-01 0.000000000000e+00 0.000000000000e+00 
3.500000000000e-01 0.000000000000e+00 0.000000000000e+00 
3.750000000000e-01 0.000000000000e+00 0.000000000000e+00 
4.000000000000e-01 0.000000000000e+00 0.000000000000e+00 
4.250000000000e-01 0.000000000000e+00 0.000000000000e+00 
4.500000000000e-01 0.000000000000e+00 0.000000000000e+00 
4.750000000000e-01 0.000000000000e+00 0.000000000000e+00 
5.000000000000e-01 0.000000000000e+00 0.000000000000e+00 
5.250000000000e-01 0.000000000000e+00 0.000000000000e+00 
5.500000000000e-01 0.000000000000e+00 0.000000000000e+00 
5.750000000000e-01 0.000000000000e+00 0.000000000000e+00 
6.000000000000e-01 0.000000000000e+00 0.000000000000e+00 
 TITLE = "Profiles along polylines"
 VARIABLES = "DIST" "VELOCITY_X2" "VELOCITY_Y2" 
 ZONE T="TIME=5.000000000000e+01"
0.000000000000e+00 -8.443753580264e-11 -1.803010866296e-13 
2.500000000000e-02 -5.767331203777e-11 -2.393336792339e-13 
5.000000000000e-02 -2.007027782229e-11 -2.070813595614e-13 
7.500000000000e-02 -9.424436396969e-12 -1.016811156614e-13 
1.000000000000e-01 1.643966406579e-11 -1.581970030741e-13 
1.250000000000e-01 6.332027995194e-11 -2.842343130388e-13 
1.500000000000e-01 8.501747720061e-11 -3.730719620653e-13 
1.750000000000e-01 7.049218876824e-11 -3.221332406377e-13 
2.000000000000e-01 5.815555167271e-11 -1.157927398304e-13 
2.250000000000e-01 6.038095829402e-11 5.711076178983e-14 
2.500000000000e-01 5.062725057394e-11 1.986659799248e-13 
2.750000000000e-01 6.788602420443e-11 4.240639082689e-13 
3.000000000000e-01 1.329075597947e-10 6.354028801888e-13 
3.250000000000e-01 2.060298240616e-10 6.573050445279e-13 
3.500000000000e-01 2.544896328756e-10 4.529593210943e-13 
3.750000000000e-01 2.593916385117e-10 1.015585122250e-13 
4.000000000000e-01 2.281501367006e-10 -4.053232965793e-13 
4.250000000000e-01 1.713737272021e-10 -7.872076844240e-13 
4.500000000000e-01 1.286013429606e-10 -7.074971193833e-13 
4.750000000000e-01 1.653624929127e-10 -6.155798555012e-13 
5.000000000000e-01 2.449762453686e-10 -9.603900494289e-13 
5.250000000000e-01 2.707675275002e-10 -1.710059096049e-12 
5.500000000000e-01 2.341762982238e-10 -3.230691868637e-12 
5.750000000000e-01 1.961679829953e-10 -6.975058172129e-12 
6.000000000000e-01 1.967546861231e-10 3.407294681303e-09 
 ZONE T="TIME=1.000000000000e+02"
0.000000000000e+00 -1.433487015913e-11 -4.168916811596e-14 
2.500000000000e-02 1.469083562092e-12 -5.169527397284e-14 
5.000000000000e-02 2.384850159925e-11 -4.056079757329e-14 
7.500000000000e-02 3.260361141236e-11 -2.841861731910e-14 
1.000000000000e-01 5.179120747702e-11 -7.574135476841e-14 
1.250000000000e-01 8.368015880780e-11 -1.418733498418e-13 
1.500000000000e-01 9.867589112458e-11 -1.645644283668e-13 
1.750000000000e-01 8.686566866129e-11 -1.176800243269e-13 
2.000000000000e-01 7.798141044908e-11 -3.258569689950e-14 
2.250000000000e-01 8.104093485521e-11 3.920157516246e-14 
2.500000000000e-01 7.297037757585e-11 9.898791017644e-14 
2.750000000000e-01 8.292603140692e-11 1.533754582057e-13 
3.000000000000e-01 1.298084885143e-10 1.782767227323e-13 
3.250000000000e-01 1.873201163940e-10 1.539254159572e-13 
3.500000000000e-01 2.281611007974e-10 7.584319310208e-14 
3.750000000000e-01 2.370549190677e-10 -5.811771051726e-14 
4.000000000000e-01 2.214385706681e-10 -2.542967820473e-13 
4.250000000000e-01 1.785352194822e-10 -4.380218460341e-13 
4.500000000000e-01 1.473453698770e-10 -5.280131054127e-13 
4.750000000000e-01 1.869511139777e-10 -6.146598623578e-13 
5.000000000000e-01 2.524660615848e-10 -8.431825094406e-13 
5.250000000000e-01 2.701928476165e-10 -1.347092114646e-12 
5.500000000000e-01 2.411621346284e-10 -2.459053254568e-12 
5.750000000000e-01 2.093857399612e-10 -5.166081073863e-12 
6.000000000000e-01 2.064306875083e-10 2.662783465421e-09 
 ZONE T="TIME=1.500000000000e+02"
0.000000000000e+00 8.358479371738e-11 -1.492707699087e-14 
2.500000000000e-02 9.013064481460e-11 -1.651891121830e-14 
5.000000000000e-02 9.855410014783e-11 -9.567074710597e-15 
7.500000000000e-02 1.050507046752e-10 -9.048890685775e-15 
1.000000000000e-01 1.209705535088e-10 -3.939936621838e-14 
1.250000000000e-01 1.452006091149e-10 -7.665582078650e-14 
1.500000000000e-01 1.578688463448e-10 -8.531642688488e-14 
1.750000000000e-01 1.449228611601e-10 -5.744085988438e-14 
2.000000000000e-01 1.351546583340e-10 -1.611225167342e-14 
2.250000000000e-01 1.396666490315e-10 1.867123707729e-14 
2.500000000000e-01 1.326576317806e-10 4.500546891817e-14 
2.750000000000e-01 1.396496020570e-10 5.663752308293e-14 
3.000000000000e-01 1.817540131718e-10 4.853655334273e-14 
3.250000000000e-01 2.392919687162e-10 2.338358543594e-14 
3.500000000000e-01 2.824490784364e-10 -2.105613827081e-14 
3.750000000000e-01 2.952397402460e-10 -9.534418573709e-14 
4.000000000000e-01 2.878171856394e-10 -2.068277000937e-13 
4.250000000000e-01 2.418434719187e-10 -3.243145839435e-13 
4.500000000000e-01 2.060291139189e-10 -4.161170703844e-13 
4.750000000000e-01 2.483740878277e-10 -5.136233766321e-13 
5.000000000000e-01 3.056541876040e-10 -6.897624585973e-13 
5.250000000000e-01 3.128559208217e-10 -1.064013548368e-12 
5.500000000000e-01 2.819694659562e-10 -1.902296777500e-12 
5.750000000000e-01 2.478006044651e-10 -3.957977543173e-12 
6.000000000000e-01 2.378892350668e-10 2.284251422323e-09 
 ZONE T="TIME=2.000000000000e+02"
0.000000000000e+00 1.725625247043e-10 -8.237404540038e-15 
2.500000000000e-02 1.717280449716e-10 -8.697556723473e-15 
5.000000000000e-02 1.686944487364e-10 -4.377809615130e-15 
7.500000000000e-02 1.730635310924e-10 -5.302840642896e-15 
1.000000000000e-01 1.866799356962e-10 -2.521023613485e-14 
1.250000000000e-01 2.056560765576e-10 -4.834881252422e-14 
1.500000000000e-01 2.168620321497e-10 -5.305163246136e-14 
1.750000000000e-01 2.018168902678e-10 -3.699740695758e-14 
2.000000000000e-01 1.902418822745e-10 -1.440852629267e-14 
2.250000000000e-01 1.958026370797e-10 5.643697480005e-15 
2.500000000000e-01 1.889473504168e-10 1.937400840957e-14 
2.750000000000e-01 1.935509359036e-10 1.927324935758e-14 
3.000000000000e-01 2.334474224928e-10 5.869696122790e-15 
3.250000000000e-01 2.929472279898e-10 -1.531531118113e-14 
3.500000000000e-01 3.389154882024e-10 -4.667373389657e-14 
3.750000000000e-01 3.542002533680e-10 -9.789055541600e-14 
4.000000000000e-01 3.516944033957e-10 -1.752993250402e-13 
4.250000000000e-01 3.004958125453e-10 -2.613120896202e-13 
4.500000000000e-01 2.585208941809e-10 -3.393125591749e-13 
4.750000000000e-01 3.031150771912e-10 -4.257955541639e-13 
5.000000000000e-01 3.550128982155e-10 -5.678443358606e-13 
5.250000000000e-01 3.538101751767e-10 -8.624015805611e-13 
5.500000000000e-01 3.203933926771e-10 -1.524875227178e-12 
5.750000000000e-01 2.835228814512e-10 -3.160031231732e-12 
6.000000000000e-01 2.682425903011e-10 2.027572188075e-09 
 ZONE T="TIME=2.500000000000e+02"
0.000000000000e+00 2.410467729897e-10 -5.909866901175e-15 
2.500000000000e-02 2.347246073009e-10 -6.442958623699e-15 
5.000000000000e-02 2.230814904842e-10 -3.925299988652e-15 
7.500000000000e-02 2.257199472833e-10 -5.036271539108e-15 
1.000000000000e-01 2.375610515671e-10 -1.900098720412e-14 
1.250000000000e-01 2.526458974914e-10 -3.466640765987e-14 
1.500000000000e-01 2.626626363233e-10 -3.783679394389e-14 
1.750000000000e-01 2.456626313034e-10 -2.831545894430e-14 
2.000000000000e-01 2.323578116523e-10 -1.482762509213e-14 
2.250000000000e-01 2.384353904205e-10 -1.654369662284e-15 
2.500000000000e-01 2.313182458544e-10 6.676529208987e-15 
2.750000000000e-01 2.338726189041e-10 3.082672984087e-15 
3.000000000000e-01 2.720408201099e-10 -1.008240683261e-14 
3.250000000000e-01 3.327754048490e-10 -2.750708721008e-14 
3.500000000000e-01 3.804657299270e-10 -5.168351180610e-14 
3.750000000000e-01 3.971246992885e-10 -9.065434415904e-14 
4.000000000000e-01 3.977092577955e-10 -1.496341293637e-13 
4.250000000000e-01 3.424779023851e-10 -2.169236970103e-13 
4.500000000000e-01 2.958822798924e-10 -2.823372128219e-13 
4.750000000000e-01 3.419385388576e-10 -3.566025822383e-13 
5.000000000000e-01 3.900474199824e-10 -4.738977251956e-13 
5.250000000000e-01 3.830293041628e-10 -7.136420243823e-13 
5.500000000000e-01 3.480849812030e-10 -1.254187702122e-12 
5.750000000000e-01 3.096623425159e-10 -2.595101922059e-12 
6.000000000000e-01 2.909995593117e-10 1.832517721763e-09 
 ZONE T="TIME=3.000000000000e+02"
0.000000000000e+00 2.883364782803e-10 -4.714395571966e-15 
2.500000000000e-02 2.781498999558e-10 -5.403093015247e-15 
5.000000000000e-02 2.604306374359e-10 -4.034881175793e-15 
7.500000000000e-02 2.617419345223e-10 -5.168659801305e-15 
1.000000000000e-01 2.721410402965e-10 -1.555760319077e-14 
1.250000000000e-01 2.842429896655e-10 -2.688331719573e-14 
1.500000000000e-01 2.932156191356e-10 -2.926982295527e-14 
1.750000000000e-01 2.748178091882e-10 -2.338912445983e-14 
2.000000000000e-01 2.602383648643e-10 -1.477256940438e-14 
2.250000000000e-01 2.664658157096e-10 -5.357397822413e-15 
2.500000000000e-01 2.590489910744e-10 2.588614524606e-16 
2.750000000000e-01 2.599637223741e-10 -4.279465431246e-15 
3.000000000000e-01 2.963974745393e-10 -1.607622586571e-14 
3.250000000000e-01 3.572142621450e-10 -3.046648859975e-14 
3.500000000000e-01 4.054555171296e-10 -4.984669042568e-14 
3.750000000000e-01 4.227618006847e-10 -8.088294673016e-14 
4.000000000000e-01 4.253960792808e-10 -1.278785454147e-13 
4.250000000000e-01 3.679520403672e-10 -1.823437049711e-13 
4.500000000000e-01 3.187034417832e-10 -2.375208663606e-13 
4.750000000000e-01 3.653950233785e-10 -3.010440017375e-13 
5.000000000000e-01 4.105391603780e-10 -3.991261334336e-13 
5.250000000000e-01 3.997792911308e-10 -5.978374704776e-13 
5.500000000000e-01 3.644265108427e-10 -1.046932985874e-12 
5.750000000000e-01 3.256476605630e-10 -2.165342256152e-12 
6.000000000000e-01 3.051855599308e-10 1.671696523063e-09 
 ZONE T="TIME=3.500000000000e+02"
0.000000000000e+00 3.171958548073e-10 -4.031487402226e-15 
2.500000000000e-02 3.045133636059e-10 -4.826990408992e-15 
5.000000000000e-02 2.828731862666e-10 -4.122734088833e-15 
7.500000000000e-02 2.832303745322e-10 -5.182638161317e-15 
1.000000000000e-01 2.924914316077e-10 -1.336245362319e-14 
1.250000000000e-01 3.023948091306e-10 -2.211512535129e-14 
1.500000000000e-01 3.104999558765e-10 -2.409390678265e-14 
1.750000000000e-01 2.912942924463e-10 -2.024693215711e-14 
2.000000000000e-01 2.759411803722e-10 -1.426499809626e-14 
2.250000000000e-01 2.821126062539e-10 -7.010655272830e-15 
2.500000000000e-01 2.745010172823e-10 -2.847127426316e-15 
2.750000000000e-01 2.742408808394e-10 -7.348591484521e-15 
3.000000000000e-01 3.090255976068e-10 -1.761935112435e-14 
3.250000000000e-01 3.690969347154e-10 -2.970519937475e-14 
3.500000000000e-01 4.170657862965e-10 -4.584942738248e-14 
3.750000000000e-01 4.345636794042e-10 -7.163674145821e-14 
4.000000000000e-01 4.385282808607e-10 -1.106870719655e-13 
4.250000000000e-01 3.803724112714e-10 -1.562791522797e-13 
4.500000000000e-01 3.300572515597e-10 -2.034195387549e-13 
4.750000000000e-01 3.767414128175e-10 -2.580988794410e-13 
5.000000000000e-01 4.195433560912e-10 -3.415656956573e-13 
5.250000000000e-01 4.066179707144e-10 -5.097583774125e-13 
5.500000000000e-01 3.716533382576e-10 -8.905508113633e-13 
5.750000000000e-01 3.333564001840e-10 -1.841600029340e-12 
6.000000000000e-01 3.122219250032e-10 1.540649393379e-09 
 ZONE T="TIME=4.000000000000e+02"
0.000000000000e+00 3.319950164266e-10 -3.457259809666e-15 
2.500000000000e-02 3.177957116306e-10 -4.263758580136e-15 
5.000000000000e-02 2.937980444969e-10 -3.950347948047e-15 
7.500000000000e-02 2.934822138554e-10 -4.947999370661e-15 
1.000000000000e-01 3.017941791058e-10 -1.160108674771e-14 
1.250000000000e-01 3.100023449634e-10 -1.861689139360e-14 
1.500000000000e-01 3.173573829377e-10 -2.029586391535e-14 
1.750000000000e-01 2.978893295075e-10 -1.765300712895e-14 
2.000000000000e-01 2.822392599745e-10 -1.329021033473e-14 
2.250000000000e-01 2.882576876878e-10 -7.504404300392e-15 
2.500000000000e-01 2.806248825557e-10 -4.278267114186e-15 
2.750000000000e-01 2.795622847050e-10 -8.488218869958e-15 
3.000000000000e-01 3.126650320498e-10 -1.741997619928e-14 
3.250000000000e-01 3.712795504969e-10 -2.768815819078e-14 
3.500000000000e-01 4.183303699634e-10 -4.131815855930e-14 
3.750000000000e-01 4.357424780820e-10 -6.305907333452e-14 
4.000000000000e-01 4.406420854301e-10 -9.598581649659e-14 
4.250000000000e-01 3.830105595215e-10 -1.346343444581e-13 
4.500000000000e-01 3.328796584860e-10 -1.752152631339e-13 
4.750000000000e-01 3.790127640745e-10 -2.224823156289e-13 
5.000000000000e-01 4.197186500086e-10 -2.939388762850e-13 
5.250000000000e-01 4.056606220058e-10 -4.374323819459e-13 
5.500000000000e-01 3.716785174352e-10 -7.629167746525e-13 
5.750000000000e-01 3.344807735487e-10 -1.577688653318e-12 
6.000000000000e-01 3.134064592307e-10 1.424970177633e-09 
 ZONE T="TIME=4.500000000000e+02"
0.000000000000e+00 3.369745267351e-10 -2.866670769958e-15 
2.500000000000e-02 3.218969555348e-10 -3.600847338124e-15 
5.000000000000e-02 2.965755687709e-10 -3.519386441960e-15 
7.500000000000e-02 2.957754794294e-10 -4.473710485880e-15 
1.000000000000e-01 3.032364212578e-10 -9.920337243426e-15 
1.250000000000e-01 3.100332891463e-10 -1.557503487251e-14 
1.500000000000e-01 3.167075732827e-10 -1.696107549470e-14 
1.750000000000e-01 2.974241600376e-10 -1.509022876167e-14 
2.000000000000e-01 2.818733436174e-10 -1.188144412227e-14 
2.250000000000e-01 2.877106405114e-10 -7.274563203595e-15 
2.500000000000e-01 2.802440273032e-10 -4.787347018207e-15 
2.750000000000e-01 2.786516202454e-10 -8.668922660383e-15 
3.000000000000e-01 3.099745199917e-10 -1.644506602116e-14 
3.250000000000e-01 3.665645775505e-10 -2.516117522482e-14 
3.500000000000e-01 4.122157970837e-10 -3.656746487291e-14 
3.750000000000e-01 4.293793644729e-10 -5.472857881339e-14 
4.000000000000e-01 4.350260405806e-10 -8.225188723068e-14 
4.250000000000e-01 3.788407682939e-10 -1.147858721123e-13 
4.500000000000e-01 3.297848535864e-10 -1.496065130440e-13 
4.750000000000e-01 3.749042706929e-10 -1.902910196661e-13 
5.000000000000e-01 4.134826200017e-10 -2.510194733911e-13 
5.250000000000e-01 3.988792131916e-10 -3.726432638127e-13 
5.500000000000e-01 3.662871699165e-10 -6.491964768515e-13 
5.750000000000e-01 3.306125151791e-10 -1.342929535813e-12 
6.000000000000e-01 3.100222470494e-10 1.313598289105e-09 
 ZONE T="TIME=5.000000000000e+02"
0.000000000000e+00 3.347420896513e-10 -2.462348027244e-15 
2.500000000000e-02 3.193341711666e-10 -3.136910970134e-15 
5.000000000000e-02 2.935546459694e-10 -3.170414134090e-15 
7.500000000000e-02 2.924436192436e-10 -4.026944451765e-15 
1.000000000000e-01 2.992243428621e-10 -8.591831390982e-15 
1.250000000000e-01 3.049946438768e-10 -1.329897847274e-14 
1.500000000000e-01 3.111310850056e-10 -1.450286086983e-14 
1.750000000000e-01 2.923029017170e-10 -1.312405679290e-14 
2.000000000000e-01 2.770933228788e-10 -1.062448015393e-14 
2.250000000000e-01 2.827534494399e-10 -6.825985368097e-15 
2.500000000000e-01 2.755639533172e-10 -4.823016976310e-15 
2.750000000000e-01 2.737113850999e-10 -8.281068317767e-15 
3.000000000000e-01 3.034422866183e-10 -1.500488930180e-14 
3.250000000000e-01 3.578982658585e-10 -2.247372927603e-14 
3.500000000000e-01 4.020003648497e-10 -3.222765216996e-14 
3.750000000000e-01 4.188144582302e-10 -4.774723527403e-14 
4.000000000000e-01 4.249474485835e-10 -7.127042688515e-14 
4.250000000000e-01 3.706089794058e-10 -9.913662560554e-14 
4.500000000000e-01 3.230484137744e-10 -1.291731697517e-13 
4.750000000000e-01 3.669186243772e-10 -1.643013515634e-13 
5.000000000000e-01 4.035859945606e-10 -2.164246325696e-13 
5.250000000000e-01 3.888931008889e-10 -3.206213868968e-13 
5.500000000000e-01 3.577985228406e-10 -5.579113605361e-13 
5.750000000000e-01 3.237616647120e-10 -1.154091641871e-12 
6.000000000000e-01 3.039004161169e-10 1.217320262072e-09 
 ZONE T="TIME=5.500000000000e+02"
0.000000000000e+00 3.279465193332e-10 -2.069556757248e-15 
2.500000000000e-02 3.125173481444e-10 -2.659628605313e-15 
5.000000000000e-02 2.867803154447e-10 -2.754218847773e-15 
7.500000000000e-02 2.854624590599e-10 -3.531748289125e-15 
1.000000000000e-01 2.916352475641e-10 -7.366805047758e-15 
1.250000000000e-01 2.965483443819e-10 -1.129162671714e-14 
1.500000000000e-01 3.022047461691e-10 -1.231500489120e-14 
1.750000000000e-01 2.840409510846e-10 -1.126714437293e-14 
2.000000000000e-01 2.693626746466e-10 -9.305369031082e-15 
2.250000000000e-01 2.748524273229e-10 -6.178427270089e-15 
2.500000000000e-01 2.680307419359e-10 -4.569575457325e-15 
2.750000000000e-01 2.660563944240e-10 -7.643105591208e-15 
3.000000000000e-01 2.941937006426e-10 -1.346706739442e-14 
3.250000000000e-01 3.463114408156e-10 -1.985918535158e-14 
3.500000000000e-01 3.886808446227e-10 -2.814150982819e-14 
3.750000000000e-01 4.050731959265e-10 -4.130650008617e-14 
4.000000000000e-01 4.115851898406e-10 -6.126998936828e-14 
4.250000000000e-01 3.594551174605e-10 -8.500493789784e-14 
4.500000000000e-01 3.137399396342e-10 -1.108562888842e-13 
4.750000000000e-01 3.561446391799e-10 -1.411073824875e-13 
5.000000000000e-01 3.908908190113e-10 -1.856165822977e-13 
5.250000000000e-01 3.763426808304e-10 -2.744674282341e-13 
5.500000000000e-01 3.468589127675e-10 -4.772170813273e-13 
5.750000000000e-01 3.145756857008e-10 -9.873816879033e-13 
6.000000000000e-01 2.955732213269e-10 1.125353420284e-09 
 ZONE T="TIME=6.000000000000e+02"
0.000000000000e+00 3.177323814923e-10 -1.828029656816e-15 
2.500000000000e-02 3.025912466421e-10 -2.367832413134e-15 
5.000000000000e-02 2.773760112747e-10 -2.486633864816e-15 
7.500000000000e-02 2.759604557564e-10 -3.163610890542e-15 
1.000000000000e-01 2.816691322854e-10 -6.470026245730e-15 
1.250000000000e-01 2.860121774865e-10 -9.857634633415e-15 
1.500000000000e-01 2.913052102764e-10 -1.078278245768e-14 
1.750000000000e-01 2.738898026541e-10 -9.960805754361e-15 
2.000000000000e-01 2.598184323055e-10 -8.322654449595e-15 
2.250000000000e-01 2.651395037494e-10 -5.641211686714e-15 
2.500000000000e-01 2.587009341680e-10 -4.274893704409e-15 
2.750000000000e-01 2.567495375025e-10 -6.954371173344e-15 
3.000000000000e-01 2.835099500310e-10 -1.199252426487e-14 
3.250000000000e-01 3.333860395472e-10 -1.753804876511e-14 
3.500000000000e-01 3.740419054785e-10 -2.476888478294e-14 
3.750000000000e-01 3.899525077429e-10 -3.626731541908e-14 
4.000000000000e-01 3.966279319775e-10 -5.369863670348e-14 
4.250000000000e-01 3.467487007381e-10 -7.438754729859e-14 
4.500000000000e-01 3.029617387078e-10 -9.686013841345e-14 
4.750000000000e-01 3.438429826041e-10 -1.231195971428e-13 
5.000000000000e-01 3.769211621326e-10 -1.617249792035e-13 
5.250000000000e-01 3.627691045570e-10 -2.387352633805e-13 
5.500000000000e-01 3.348368304092e-10 -4.146186086634e-13 
5.750000000000e-01 3.042446682347e-10 -8.576138021166e-13 
6.000000000000e-01 2.861791934871e-10 1.048667421717e-09 
 ZONE T="TIME=6.500000000000e+02"
0.000000000000e+00 3.057599349843e-10 -1.568438543019e-15 
2.500000000000e-02 2.910238540439e-10 -2.040548636957e-15 
5.000000000000e-02 2.665236984898e-10 -2.169206609997e-15 
7.500000000000e-02 2.650583669191e-10 -2.776302439667e-15 
1.000000000000e-01 2.703342622321e-10 -5.621165650406e-15 
1.250000000000e-01 2.741687472670e-10 -8.528086116047e-15 
1.500000000000e-01 2.791172278029e-10 -9.335089939784e-15 
1.750000000000e-01 2.625309790206e-10 -8.670599446403e-15 
2.000000000000e-01 2.491412813456e-10 -7.312026448188e-15 
2.250000000000e-01 2.542925813736e-10 -5.033696948979e-15 
2.500000000000e-01 2.482629855221e-10 -3.887493990062e-15 
2.750000000000e-01 2.463702808775e-10 -6.245831710665e-15 
3.000000000000e-01 2.717283292491e-10 -1.063166876788e-14 
3.250000000000e-01 3.192583101865e-10 -1.543416406287e-14 
3.500000000000e-01 3.581092533534e-10 -2.167374065148e-14 
3.750000000000e-01 3.734978796910e-10 -3.159353711598e-14 
4.000000000000e-01 3.802892153549e-10 -4.663572301980e-14 
4.250000000000e-01 3.328090846222e-10 -6.451272674788e-14 
4.500000000000e-01 2.910935076327e-10 -8.401820906660e-14 
4.750000000000e-01 3.303490727012e-10 -1.067861115189e-13 
5.000000000000e-01 3.617334809291e-10 -1.400761584653e-13 
5.250000000000e-01 3.480556323952e-10 -2.064510657042e-13 
5.500000000000e-01 3.216998526750e-10 -3.582983923767e-13 
5.750000000000e-01 2.928200903202e-10 -7.411550383248e-13 
6.000000000000e-01 2.757122687138e-10 9.743055400034e-10 
 ZONE T="TIME=7.000000000000e+02"
0.000000000000e+00 2.929409387953e-10 -1.321505406131e-15 
2.500000000000e-02 2.786730275261e-10 -1.722783086422e-15 
5.000000000000e-02 2.549904591481e-10 -1.848824671015e-15 
7.500000000000e-02 2.535029455784e-10 -2.394304894273e-15 
1.000000000000e-01 2.583725372965e-10 -4.830712875963e-15 
1.250000000000e-01 2.617470170449e-10 -7.309936819053e-15 
1.500000000000e-01 2.663713037469e-10 -7.999951407855e-15 
1.750000000000e-01 2.506492246827e-10 -7.453694337980e-15 
2.000000000000e-01 2.379729635563e-10 -6.332725002800e-15 
2.250000000000e-01 2.429574308681e-10 -4.414923392986e-15 
2.500000000000e-01 2.373486582689e-10 -3.467733957395e-15 
2.750000000000e-01 2.355394316825e-10 -5.545430445911e-15 
3.000000000000e-01 2.595072389332e-10 -9.358914658452e-15 
3.250000000000e-01 3.046696958984e-10 -1.349743358425e-14 
3.500000000000e-01 3.416887344998e-10 -1.883050633597e-14 
3.750000000000e-01 3.565316908498e-10 -2.730404933964e-14 
4.000000000000e-01 3.633946663480e-10 -4.016318580614e-14 
4.250000000000e-01 3.183461399413e-10 -5.548698565059e-14 
4.500000000000e-01 2.787309714342e-10 -7.233117998676e-14 
4.750000000000e-01 3.162920119291e-10 -9.197748790625e-14 
5.000000000000e-01 3.459619333130e-10 -1.204926168932e-13 
5.250000000000e-01 3.327739699252e-10 -1.773198329794e-13 
5.500000000000e-01 3.079645672902e-10 -3.075849271469e-13 
5.750000000000e-01 2.807654093466e-10 -6.363891355670e-13 
6.000000000000e-01 2.645916075291e-10 9.023042616281e-10 
 ZONE T="TIME=7.500000000000e+02"
0.000000000000e+00 2.796426278141e-10 -1.134246261278e-15 
2.500000000000e-02 2.659143425955e-10 -1.481280601436e-15 
5.000000000000e-02 2.431555047483e-10 -1.598470862650e-15 
7.500000000000e-02 2.416764098692e-10 -2.079193451709e-15 
1.000000000000e-01 2.461965975134e-10 -4.181537406745e-15 
1.250000000000e-01 2.492128967485e-10 -6.319255722814e-15 
1.500000000000e-01 2.535589583069e-10 -6.922286717290e-15 
1.750000000000e-01 2.386885119043e-10 -6.468859499961e-15 
2.000000000000e-01 2.267155751634e-10 -5.522183763231e-15 
2.250000000000e-01 2.315366815801e-10 -3.884355519169e-15 
2.500000000000e-01 2.263331604647e-10 -3.084905175149e-15 
2.750000000000e-01 2.246417121582e-10 -4.898294911461e-15 
3.000000000000e-01 2.473294010363e-10 -8.203297906532e-15 
3.250000000000e-01 2.902324922670e-10 -1.177819289384e-14 
3.500000000000e-01 3.254810061382e-10 -1.637518482306e-14 
3.750000000000e-01 3.397641082052e-10 -2.368004454484e-14 
4.000000000000e-01 3.466116616945e-10 -3.477205246111e-14 
4.250000000000e-01 3.039013693690e-10 -4.799639045858e-14 
4.500000000000e-01 2.663125422462e-10 -6.255972960677e-14 
4.750000000000e-01 3.021828293570e-10 -7.951929293979e-14 
5.000000000000e-01 3.302378765291e-10 -1.040351044944e-13 
5.250000000000e-01 3.175718602817e-10 -1.528809352115e-13 
5.500000000000e-01 2.942122138397e-10 -2.650191176793e-13 
5.750000000000e-01 2.685937170591e-10 -5.483265742686e-13 
6.000000000000e-01 2.533188060352e-10 8.373235337321e-10 
 ZONE T="TIME=8.000000000000e+02"
0.000000000000e+00 2.665992697214e-10 -9.354061383337e-16 
2.500000000000e-02 2.533846853193e-10 -1.219916561333e-15 
5.000000000000e-02 2.315124983311e-10 -1.322974227698e-15 
7.500000000000e-02 2.300402383106e-10 -1.752351404357e-15 
1.000000000000e-01 2.342047386561e-10 -3.543365282034e-15 
1.250000000000e-01 2.368415417878e-10 -5.355789186266e-15 
1.500000000000e-01 2.409031484068e-10 -5.860150804022e-15 
1.750000000000e-01 2.268843646561e-10 -5.474243559587e-15 
2.000000000000e-01 2.156179482488e-10 -4.690863797927e-15 
2.250000000000e-01 2.202836132000e-10 -3.322427846604e-15 
2.500000000000e-01 2.154883783709e-10 -2.667791073231e-15 
2.750000000000e-01 2.139010706214e-10 -4.253607975165e-15 
3.000000000000e-01 2.352868089479e-10 -7.109564434066e-15 
3.250000000000e-01 2.759233871606e-10 -1.016207616461e-14 
3.500000000000e-01 3.094005579691e-10 -1.403814858029e-14 
3.750000000000e-01 3.231266499120e-10 -2.019437473441e-14 
4.000000000000e-01 3.299726031435e-10 -2.955679042833e-14 
4.250000000000e-01 2.895823448607e-10 -4.076380462002e-14 
4.500000000000e-01 2.539922524264e-10 -5.323183210768e-14 
4.750000000000e-01 2.881439668481e-10 -6.774124055522e-14 
5.000000000000e-01 3.145185921935e-10 -8.851840890663e-14 
5.250000000000e-01 3.023107165143e-10 -1.299062351621e-13 
5.500000000000e-01 2.803592144326e-10 -2.251633538189e-13 
5.750000000000e-01 2.562772662978e-10 -4.661073820093e-13 
6.000000000000e-01 2.418388818023e-10 7.715747794000e-10 
 ZONE T="TIME=8.500000000000e+02"
0.000000000000e+00 2.534124631049e-10 -8.643995118689e-16 
2.500000000000e-02 2.408312563032e-10 -1.131893378404e-15 
5.000000000000e-02 2.200100185784e-10 -1.225984919632e-15 
7.500000000000e-02 2.185955357436e-10 -1.589283211598e-15 
1.000000000000e-01 2.225380481450e-10 -3.179486088109e-15 
1.250000000000e-01 2.250327957296e-10 -4.803094533519e-15 
1.500000000000e-01 2.289218582286e-10 -5.279689011233e-15 
1.750000000000e-01 2.156653283115e-10 -4.958318131876e-15 
2.000000000000e-01 2.050291960628e-10 -4.248746773923e-15 
2.250000000000e-01 2.095521735994e-10 -3.013696213975e-15 
2.500000000000e-01 2.051074962860e-10 -2.411708967915e-15 
2.750000000000e-01 2.037022775852e-10 -3.767222951192e-15 
3.000000000000e-01 2.241217830118e-10 -6.234194955030e-15 
3.250000000000e-01 2.628817054350e-10 -8.909712625469e-15 
3.500000000000e-01 2.948434601002e-10 -1.237279664087e-14 
3.750000000000e-01 3.080287590960e-10 -1.788821588160e-14 
4.000000000000e-01 3.146981437714e-10 -2.627203340717e-14 
4.250000000000e-01 2.762904895249e-10 -3.623918880060e-14 
4.500000000000e-01 2.424293918593e-10 -4.714836655190e-14 
4.750000000000e-01 2.750227479582e-10 -5.979061814464e-14 
5.000000000000e-01 3.000872556813e-10 -7.802128360105e-14 
5.250000000000e-01 2.884221704666e-10 -1.143531008962e-13 
5.500000000000e-01 2.676424187830e-10 -1.979503058264e-13 
5.750000000000e-01 2.448518842794e-10 -4.094550662878e-13 
6.000000000000e-01 2.311955733373e-10 7.235552579318e-10 
 ZONE T="TIME=9.000000000000e+02"
0.000000000000e+00 2.407036309076e-10 -7.917707412220e-16 
2.500000000000e-02 2.287429738179e-10 -1.039689637498e-15 
5.000000000000e-02 2.089515468926e-10 -1.126746885469e-15 
7.500000000000e-02 2.076054893774e-10 -1.442815082975e-15 
1.000000000000e-01 2.113501649459e-10 -2.864809157825e-15 
1.250000000000e-01 2.137263784896e-10 -4.324371754342e-15 
1.500000000000e-01 2.174538446259e-10 -4.764897519337e-15 
1.750000000000e-01 2.049192188938e-10 -4.486337022122e-15 
2.000000000000e-01 1.948824982458e-10 -3.840104160700e-15 
2.250000000000e-01 1.992636482764e-10 -2.716983562408e-15 
2.500000000000e-01 1.951373968724e-10 -2.156246285035e-15 
2.750000000000e-01 1.938940417608e-10 -3.328190996458e-15 
3.000000000000e-01 2.133903644891e-10 -5.485846206778e-15 
3.250000000000e-01 2.503551689773e-10 -7.847615425530e-15 
3.500000000000e-01 2.808627054990e-10 -1.094131335498e-14 
3.750000000000e-01 2.935190315792e-10 -1.588051824004e-14 
4.000000000000e-01 2.999996640494e-10 -2.338661778974e-14 
4.250000000000e-01 2.634856089364e-10 -3.227102297300e-14 
4.500000000000e-01 2.312846777926e-10 -4.189395863506e-14 
4.750000000000e-01 2.623954331910e-10 -5.300234599566e-14 
5.000000000000e-01 2.862365460216e-10 -6.907237352260e-14 
5.250000000000e-01 2.751078824525e-10 -1.011240456818e-13 
5.500000000000e-01 2.554274729039e-10 -1.749090537129e-13 
5.750000000000e-01 2.338447221963e-10 -3.616411038118e-13 
6.000000000000e-01 2.209223311593e-10 6.798907241641e-10 
 ZONE T="TIME=9.500000000000e+02"
0.000000000000e+00 2.287489317221e-10 -7.019896740904e-16 
2.500000000000e-02 2.173548944551e-10 -9.220190483589e-16 
5.000000000000e-02 1.985105057714e-10 -1.000249248762e-15 
7.500000000000e-02 1.972251672450e-10 -1.282312463261e-15 
1.000000000000e-01 2.007651364541e-10 -2.545551996227e-15 
1.250000000000e-01 2.029918285560e-10 -3.842491753711e-15 
1.500000000000e-01 2.065457560118e-10 -4.234280855670e-15 
1.750000000000e-01 1.946995367791e-10 -3.985403852172e-15 
2.000000000000e-01 1.852326054165e-10 -3.407769232221e-15 
2.250000000000e-01 1.894672987942e-10 -2.404431728086e-15 
2.500000000000e-01 1.856362179451e-10 -1.897523300291e-15 
2.750000000000e-01 1.845158003644e-10 -2.925725243634e-15 
3.000000000000e-01 2.030672848381e-10 -4.826143292135e-15 
3.250000000000e-01 2.382504847747e-10 -6.904183973090e-15 
3.500000000000e-01 2.673201247107e-10 -9.626980475199e-15 
3.750000000000e-01 2.794533413847e-10 -1.398031042788e-14 
4.000000000000e-01 2.857632248110e-10 -2.060048866031e-14 
4.250000000000e-01 2.510933900848e-10 -2.843093680484e-14 
4.500000000000e-01 2.205060263457e-10 -3.689856924253e-14 
4.750000000000e-01 2.501654815725e-10 -4.664624230543e-14 