 TITLE = "Profiles along polylines"
 VARIABLES = "DIST" "VELOCITY_X2" "VELOCITY_Y2" 
 ZONE T="TIME=0.000000000000e+00"
0.000000000000e+00 0.000000000000e+00 0.000000000000e+00 
2.500000000000e-02 0.000000000000e+00 0.000000000000e+00 
5.000000000000e-02 0.000000000000e+00 0.000000000000e+00 
7.500000000000e-02 0.000000000000e+00 0.000000000000e+00 
1.000000000000e-01 0.000000000000e+00 0.000000000000e+00 
1.250000000000e-01 0.000000000000e+00 0.000000000000e+00 
1.500000000000e-01 0.000000000000e+00 0.000000000000e+00 
1.750000000000e-01 0.000000000000e+00 0.000000000000e+00 
2.000000000000e-01 0.000000000000e+00 0.000000000000e+00 
2.250000000000e-01 0.000000000000e+00 0.000000000000e+00 
2.500000000000e-01 0.000000000000e+00 0.000000000000e+00 
2.750000000000e-01 0.000000000000e+00 0.000000000000e+00 
3.000000000000e-01 0.000000000000e+00 0.000000000000e+00 
3.250000000000e-01 0.000000000000e+00 0.000000000000e+00 
3.500000000000e-01 0.000000000000e+00 0.000000000000e+00 
3.750000000000e-01 0.000000000000e+00 0.000000000000e+00 
4.000000000000e-01 0.000000000000e+00 0.000000000000e+00 
4.250000000000e-01 0.000000000000e+00 0.000000000000e+00 
4.500000000000e-01 0.000000000000e+00 0.000000000000e+00 
4.750000000000e-01 0.000000000000e+00 0.000000000000e+00 
5.000000000000e-01 0.000000000000e+00 0.000000000000e+00 
5.250000000000e-01 0.000000000000e+00 0.000000000000e+00 
5.500000000000e-01 0.000000000000e+00 0.000000000000e+00 
5.750000000000e-01 0.000000000000e+00 0.000000000000e+00 
6.000000000000e-01 0.000000000000e+00 0.000000000000e+00 
 TITLE = "Profiles along polylines"
 VARIABLES = "DIST" "VELOCITY_X2" "VELOCITY_Y2" 
 ZONE T="TIME=5.000000000000e+01"
0.000000000000e+00 -1.312727717336e-10 -4.449876989053e-13 
2.500000000000e-02 -1.084261100798e-10 -7.476703788664e-13 
5.000000000000e-02 -5.913136433860e-11 -1.065397681624e-12 
7.500000000000e-02 -2.057895288669e-11 -9.326457022453e-13 
1.000000000000e-01 -3.941788183426e-12 -6.207212770940e-13 
1.250000000000e-01 1.880742338592e-11 -2.674983717983e-13 
1.500000000000e-01 4.105307911507e-11 4.231921875123e-14 
1.750000000000e-01 6.351139253967e-11 1.785441322831e-13 
2.000000000000e-01 1.136697868209e-10 1.822767116784e-13 
2.250000000000e-01 1.507802626369e-10 2.558190022041e-13 
2.500000000000e-01 1.597782251695e-10 5.453895056975e-13 
2.750000000000e-01 1.821273042760e-10 1.001041646117e-12 
3.000000000000e-01 2.354620069067e-10 1.380184977987e-12 
3.250000000000e-01 3.610432231095e-10 1.408757520413e-12 
3.500000000000e-01 4.917107890188e-10 1.159187277285e-12 
3.750000000000e-01 5.119458347174e-10 8.947327383572e-13 
4.000000000000e-01 4.169982481639e-10 5.729420920928e-13 
4.250000000000e-01 2.284635143819e-10 2.453696867372e-13 
4.500000000000e-01 9.689599097210e-11 8.567732506824e-14 
4.750000000000e-01 4.004626759347e-11 -2.906863385828e-13 
5.000000000000e-01 -3.937273980019e-11 -1.203010241573e-12 
5.250000000000e-01 -8.633728528313e-11 -2.445542127406e-12 
5.500000000000e-01 -1.074715229199e-10 -4.443316140857e-12 
5.750000000000e-01 -9.759160777690e-11 -9.344596877533e-12 
6.000000000000e-01 -2.784030115088e-11 4.516513731513e-09 
 ZONE T="TIME=1.000000000000e+02"
0.000000000000e+00 -1.681470971787e-10 -1.517192219183e-13 
2.500000000000e-02 -1.439937272532e-10 -2.773868364663e-13 
5.000000000000e-02 -9.429129165010e-11 -4.441216504581e-13 
7.500000000000e-02 -5.807216216497e-11 -4.430331815390e-13 
1.000000000000e-01 -4.236992727520e-11 -3.283638299117e-13 
1.250000000000e-01 -2.424436556040e-11 -1.732202633046e-13 
1.500000000000e-01 -9.900956794812e-12 -2.207187118100e-14 
1.750000000000e-01 3.896179760779e-12 8.215663604878e-14 
2.000000000000e-01 4.104869065889e-11 1.463826661241e-13 
2.250000000000e-01 7.214489598696e-11 2.265047450547e-13 
2.500000000000e-01 8.340558149677e-11 3.599352218265e-13 
2.750000000000e-01 1.030134025225e-10 5.262524872124e-13 
3.000000000000e-01 1.432344459668e-10 6.418502755150e-13 
3.250000000000e-01 2.336667977866e-10 6.239268587407e-13 
3.500000000000e-01 3.285092516229e-10 5.187360975888e-13 
3.750000000000e-01 3.447269899936e-10 4.013169806380e-13 
4.000000000000e-01 2.746901772552e-10 2.322170497817e-13 
4.250000000000e-01 1.359489810460e-10 2.134390201439e-14 
4.500000000000e-01 3.544842126836e-11 -1.754659300756e-13 
4.750000000000e-01 -1.608515584188e-11 -4.863686356717e-13 
5.000000000000e-01 -7.975461663114e-11 -1.071178164022e-12 
5.250000000000e-01 -1.120969024248e-10 -2.006710857979e-12 
5.500000000000e-01 -1.273504670170e-10 -3.745233663121e-12 
5.750000000000e-01 -1.186793476129e-10 -7.837953410622e-12 
6.000000000000e-01 -5.571260348133e-11 3.793290547281e-09 
 ZONE T="TIME=1.500000000000e+02"
0.000000000000e+00 -1.622606937771e-10 -4.756813725525e-14 
2.500000000000e-02 -1.410018278501e-10 -9.471010062582e-14 
5.000000000000e-02 -9.838099875856e-11 -1.671040991442e-13 
7.500000000000e-02 -6.868831437004e-11 -1.820493885188e-13 
1.000000000000e-01 -5.583358436505e-11 -1.440808847393e-13 
1.250000000000e-01 -4.208530125465e-11 -8.461282689450e-14 
1.500000000000e-01 -3.278550277562e-11 -2.108111786957e-14 
1.750000000000e-01 -2.419726839962e-11 3.493832648591e-14 
2.000000000000e-01 2.751847133444e-12 8.083561340921e-14 
2.250000000000e-01 2.771195747557e-11 1.259095071509e-13 
2.500000000000e-01 3.927405684249e-11 1.768014021169e-13 
2.750000000000e-01 5.557110372209e-11 2.286540458491e-13 
3.000000000000e-01 8.469626853385e-11 2.569832173383e-13 
3.250000000000e-01 1.478142833085e-10 2.371675743573e-13 
3.500000000000e-01 2.145921549732e-10 1.897741040364e-13 
3.750000000000e-01 2.264972751717e-10 1.337586122108e-13 
4.000000000000e-01 1.752961083164e-10 4.287819928914e-14 
4.250000000000e-01 7.511588951646e-11 -8.267048134013e-14 
4.500000000000e-01 1.092388179353e-12 -2.235808752044e-13 
4.750000000000e-01 -4.165105162224e-11 -4.355839630716e-13 
5.000000000000e-01 -9.095016866652e-11 -8.089401450620e-13 
5.250000000000e-01 -1.124129449195e-10 -1.445575207231e-12 
5.500000000000e-01 -1.224115008208e-10 -2.697551674127e-12 
5.750000000000e-01 -1.140479576904e-10 -5.648937870763e-12 
6.000000000000e-01 -5.934120899135e-11 3.156015839642e-09 
 ZONE T="TIME=2.000000000000e+02"
0.000000000000e+00 -1.457039462002e-10 -2.097483806633e-14 
2.500000000000e-02 -1.274796082946e-10 -4.385520806836e-14 
5.000000000000e-02 -9.150465760521e-11 -8.115872926669e-14 
7.500000000000e-02 -6.716671904454e-11 -9.184875422740e-14 
1.000000000000e-01 -5.666966511894e-11 -7.489868509198e-14 
1.250000000000e-01 -4.579613179538e-11 -4.648654419388e-14 
1.500000000000e-01 -3.912792285656e-11 -1.485022096339e-14 
1.750000000000e-01 -3.316707207957e-11 1.574247756768e-14 
2.000000000000e-01 -1.242616850954e-11 4.234391046331e-14 
2.250000000000e-01 8.042525194842e-12 6.616752427613e-14 
2.500000000000e-01 1.876625812802e-11 8.900796994078e-14 
2.750000000000e-01 3.232487518848e-11 1.098163961696e-13 
3.000000000000e-01 5.447089597715e-11 1.180669739623e-13 
3.250000000000e-01 1.016127168014e-10 1.021480957356e-13 
3.500000000000e-01 1.520318290055e-10 7.252506296944e-14 
3.750000000000e-01 1.611861918227e-10 3.626060557298e-14 
4.000000000000e-01 1.209902174633e-10 -2.429433313845e-14 
4.250000000000e-01 4.332952318095e-11 -1.105407904926e-13 
4.500000000000e-01 -1.450188795731e-11 -2.138286659188e-13 
4.750000000000e-01 -5.056613687003e-11 -3.709253402326e-13 
5.000000000000e-01 -9.078649669828e-11 -6.453546537312e-13 
5.250000000000e-01 -1.061627745805e-10 -1.124136001663e-12 
5.500000000000e-01 -1.130390210262e-10 -2.086826168137e-12 
5.750000000000e-01 -1.047030930927e-10 -4.370420853792e-12 
6.000000000000e-01 -5.556319233548e-11 2.763348290198e-09 
 ZONE T="TIME=2.500000000000e+02"
0.000000000000e+00 -1.276309338100e-10 -1.094873110047e-14 
2.500000000000e-02 -1.121090352259e-10 -2.359673686593e-14 
5.000000000000e-02 -8.179227969944e-11 -4.492039397657e-14 
7.500000000000e-02 -6.168861464012e-11 -5.208499578712e-14 
1.000000000000e-01 -5.300310241387e-11 -4.360918295020e-14 
1.250000000000e-01 -4.418128376910e-11 -2.868007114370e-14 
1.500000000000e-01 -3.911557764938e-11 -1.174045982597e-14 
1.750000000000e-01 -3.469283516036e-11 5.303926707010e-15 
2.000000000000e-01 -1.826803729800e-11 2.027708912130e-14 
2.250000000000e-01 -1.351348302059e-12 3.286157842614e-14 
2.500000000000e-01 8.211290965077e-12 4.382349314303e-14 
2.750000000000e-01 1.956295199265e-11 5.307007426549e-14 
3.000000000000e-01 3.699754530371e-11 5.484375720932e-14 
3.250000000000e-01 7.367906761779e-11 4.236011882483e-14 
3.500000000000e-01 1.132768630759e-10 2.149992406669e-14 
3.750000000000e-01 1.205631143473e-10 -4.666715174378e-15 
4.000000000000e-01 8.793874285756e-11 -4.842134230348e-14 
4.250000000000e-01 2.544925544021e-11 -1.115464526035e-13 
4.500000000000e-01 -2.135093719212e-11 -1.903208503887e-13 
4.750000000000e-01 -5.225838404636e-11 -3.117562891639e-13 
5.000000000000e-01 -8.608136384174e-11 -5.236576057111e-13 
5.250000000000e-01 -9.780879475183e-11 -8.986258900493e-13 
5.500000000000e-01 -1.028936803770e-10 -1.663316842228e-12 
5.750000000000e-01 -9.485390699054e-11 -3.486340099979e-12 
6.000000000000e-01 -5.036968526834e-11 2.463370581557e-09 
 ZONE T="TIME=3.000000000000e+02"
0.000000000000e+00 -1.105081780404e-10 -6.221137942372e-15 
2.500000000000e-02 -9.731061945232e-11 -1.372418995680e-14 
5.000000000000e-02 -7.172319824221e-11 -2.672475576048e-14 
7.500000000000e-02 -5.497175463658e-11 -3.171292742821e-14 
1.000000000000e-01 -4.767039474508e-11 -2.742545518444e-14 
1.250000000000e-01 -4.034338179339e-11 -1.934297781635e-14 
1.500000000000e-01 -3.627662059231e-11 -1.002390281699e-14 
1.750000000000e-01 -3.274948245927e-11 -3.985342360662e-16 
2.000000000000e-01 -1.939846758578e-11 8.017767091007e-15 
2.250000000000e-01 -5.257946961738e-12 1.464899454639e-14 
2.500000000000e-01 3.175754261104e-12 1.991371151029e-14 
2.750000000000e-01 1.283423985970e-11 2.396636974978e-14 
3.000000000000e-01 2.706977090800e-11 2.325928189332e-14 
3.250000000000e-01 5.669878149643e-11 1.341187242887e-14 
3.500000000000e-01 8.884474680459e-11 -2.067369291918e-15 
3.750000000000e-01 9.480496228496e-11 -2.186239810452e-14 
4.000000000000e-01 6.764831288915e-11 -5.486771766031e-14 
4.250000000000e-01 1.584266268776e-11 -1.029018480633e-13 
4.500000000000e-01 -2.318282199980e-11 -1.647792868665e-13 
4.750000000000e-01 -5.005544308449e-11 -2.611974671166e-13 
5.000000000000e-01 -7.920119685093e-11 -4.293999923355e-13 
5.250000000000e-01 -8.876500343873e-11 -7.301758625658e-13 
5.500000000000e-01 -9.290073911157e-11 -1.349964680343e-12 
5.750000000000e-01 -8.537987919930e-11 -2.833107471972e-12 
6.000000000000e-01 -4.500906292240e-11 2.218505540984e-09 
 ZONE T="TIME=3.500000000000e+02"
0.000000000000e+00 -9.477149757319e-11 -3.433738835662e-15 
2.500000000000e-02 -8.360694410244e-11 -7.874870966929e-15 
5.000000000000e-02 -6.208425451374e-11 -1.589551932003e-14 
7.500000000000e-02 -4.811511899342e-11 -1.952364167136e-14 
1.000000000000e-01 -4.193780247838e-11 -1.763937389400e-14 
1.250000000000e-01 -3.579297971325e-11 -1.350521094066e-14 
1.500000000000e-01 -3.242804308961e-11 -8.584227367634e-15 
1.750000000000e-01 -2.948540271976e-11 -3.267516458455e-15 
2.000000000000e-01 -1.850860712412e-11 1.384388852890e-15 
2.250000000000e-01 -6.646510018200e-12 4.715709897312e-15 
2.500000000000e-01 7.508718832985e-13 6.888778728754e-15 
2.750000000000e-01 9.039838714938e-12 8.122020284524e-15 
3.000000000000e-01 2.089791749049e-11 6.236750003172e-15 
3.250000000000e-01 4.527490108770e-11 -1.570974568508e-15 
3.500000000000e-01 7.175304111451e-11 -1.316597111279e-14 
3.750000000000e-01 7.667503693621e-11 -2.825718148227e-14 
4.000000000000e-01 5.384712270887e-11 -5.341086278458e-14 
4.250000000000e-01 1.033901511705e-11 -9.036881843144e-14 
4.500000000000e-01 -2.266545901243e-11 -1.394280833615e-13 
4.750000000000e-01 -4.616171138833e-11 -2.164270677230e-13 
5.000000000000e-01 -7.154249620365e-11 -3.505040935706e-13 
5.250000000000e-01 -7.967261533151e-11 -5.925839030370e-13 
5.500000000000e-01 -8.327010180576e-11 -1.096125767771e-12 
5.750000000000e-01 -7.639142777833e-11 -2.304681356387e-12 
6.000000000000e-01 -3.986754581265e-11 1.999899017012e-09 
 ZONE T="TIME=4.000000000000e+02"
0.000000000000e+00 -8.134753910973e-11 -2.248269457908e-15 
2.500000000000e-02 -7.182459996341e-11 -5.196560819226e-15 
5.000000000000e-02 -5.352022169656e-11 -1.060292243731e-14 
7.500000000000e-02 -4.166943477547e-11 -1.326784889858e-14 
1.000000000000e-01 -3.633387614997e-11 -1.241943261291e-14 
1.250000000000e-01 -3.102243132289e-11 -1.016298006584e-14 
1.500000000000e-01 -2.804866953003e-11 -7.413283488230e-15 
1.750000000000e-01 -2.538050713169e-11 -4.388341406337e-15 
2.000000000000e-01 -1.600345360786e-11 -1.827865708071e-15 
2.250000000000e-01 -5.826525628576e-12 -2.214282312712e-16 
2.500000000000e-01 6.856506280672e-13 5.546450826906e-16 
2.750000000000e-01 7.961717543319e-12 6.895808189069e-16 
3.000000000000e-01 1.827513732895e-11 -1.376715459434e-15 
3.250000000000e-01 3.929116319300e-11 -7.731189420267e-15 
3.500000000000e-01 6.203934103868e-11 -1.697695968908e-14 
3.750000000000e-01 6.622946507847e-11 -2.913792310511e-14 
4.000000000000e-01 4.638092067094e-11 -4.930905313996e-14 
4.250000000000e-01 8.467955161525e-12 -7.905426713643e-14 
4.500000000000e-01 -2.044391157089e-11 -1.192188257409e-13 
4.750000000000e-01 -4.136702122922e-11 -1.826688376676e-13 
5.000000000000e-01 -6.405085612460e-11 -2.932411072006e-13 
5.250000000000e-01 -7.142529108397e-11 -4.938910884449e-13 
5.500000000000e-01 -7.481088158695e-11 -9.133435889511e-13 
5.750000000000e-01 -6.855388481261e-11 -1.922200191684e-12 
6.000000000000e-01 -3.523117183493e-11 1.826431756269e-09 
 ZONE T="TIME=4.500000000000e+02"
0.000000000000e+00 -6.991884918545e-11 -1.591893252108e-15 
2.500000000000e-02 -6.174755997713e-11 -3.685646745637e-15 
5.000000000000e-02 -4.605561723205e-11 -7.564477711545e-15 
7.500000000000e-02 -3.587765912709e-11 -9.609006586916e-15 
1.000000000000e-01 -3.120568077085e-11 -9.279007795074e-15 
1.250000000000e-01 -2.652691318801e-11 -8.019455838725e-15 
1.500000000000e-01 -2.379816181299e-11 -6.443054473260e-15 
1.750000000000e-01 -2.126559424501e-11 -4.689542643328e-15 
2.000000000000e-01 -1.303753474896e-11 -3.288497746683e-15 
2.250000000000e-01 -4.158268681175e-12 -2.593862224178e-15 
2.500000000000e-01 1.607849221844e-12 -2.505687300611e-15 
2.750000000000e-01 8.115675209889e-12 -2.873083805454e-15 
3.000000000000e-01 1.738514122849e-11 -4.884322675307e-15 
3.250000000000e-01 3.613067427154e-11 -1.017515132082e-14 
3.500000000000e-01 5.627815242377e-11 -1.776636392969e-14 
3.750000000000e-01 5.994968175140e-11 -2.781790359467e-14 
4.000000000000e-01 4.233150574410e-11 -4.442773112625e-14 
4.250000000000e-01 8.488362886454e-12 -6.899186812908e-14 
4.500000000000e-01 -1.744323301803e-11 -1.025763290667e-13 
4.750000000000e-01 -3.629684419937e-11 -1.558608687879e-13 
5.000000000000e-01 -5.691113167793e-11 -2.487612528914e-13 
5.250000000000e-01 -6.390446627735e-11 -4.179362610067e-13 
5.500000000000e-01 -6.726642933919e-11 -7.728138906058e-13 
5.750000000000e-01 -6.161775099122e-11 -1.627632762011e-12 
6.000000000000e-01 -3.107766196933e-11 1.680319867990e-09 
 ZONE T="TIME=5.000000000000e+02"
0.000000000000e+00 -6.014646181533e-11 -1.093402967957e-15 
2.500000000000e-02 -5.311451055906e-11 -2.583674235268e-15 
5.000000000000e-02 -3.960967953536e-11 -5.411524246250e-15 
7.500000000000e-02 -3.081397120607e-11 -7.038016723435e-15 
1.000000000000e-01 -2.669236773210e-11 -7.028244752233e-15 
1.250000000000e-01 -2.253549774086e-11 -6.390888261703e-15 
1.500000000000e-01 -1.999756791319e-11 -5.540250897049e-15 
1.750000000000e-01 -1.755908039964e-11 -4.549627340759e-15 
2.000000000000e-01 -1.024998884970e-11 -3.811932576066e-15 
2.250000000000e-01 -2.436239056694e-12 -3.621610672951e-15 
2.500000000000e-01 2.695828691253e-12 -3.930355932285e-15 
2.750000000000e-01 8.578150633924e-12 -4.615622814962e-15 
3.000000000000e-01 1.704110902219e-11 -6.562500981560e-15 
3.250000000000e-01 3.401220857767e-11 -1.102250405961e-14 
3.500000000000e-01 5.208569313356e-11 -1.727972121810e-14 
3.750000000000e-01 5.534272416171e-11 -2.560748255923e-14 
4.000000000000e-01 3.958017517627e-11 -3.935654361477e-14 
4.250000000000e-01 9.077907766734e-12 -5.977835358876e-14 
4.500000000000e-01 -1.441589935521e-11 -8.805122735582e-14 
4.750000000000e-01 -3.149667186945e-11 -1.330117438329e-13 
5.000000000000e-01 -5.035275574354e-11 -2.113307111460e-13 
5.250000000000e-01 -5.708906125091e-11 -3.544750139271e-13 
5.500000000000e-01 -6.047829128381e-11 -6.558080794774e-13 
5.750000000000e-01 -5.541257011160e-11 -1.382523679430e-12 
6.000000000000e-01 -2.741086782591e-11 1.548060445422e-09 
 ZONE T="TIME=5.500000000000e+02"
0.000000000000e+00 -5.187547068184e-11 -7.420452258995e-16 
2.500000000000e-02 -4.579698816277e-11 -1.811881888666e-15 
5.000000000000e-02 -3.411330103463e-11 -3.904845000389e-15 
7.500000000000e-02 -2.645768015043e-11 -5.219404556623e-15 
1.000000000000e-01 -2.279242154416e-11 -5.387476813930e-15 
1.250000000000e-01 -1.906559661588e-11 -5.126132645255e-15 
1.500000000000e-01 -1.667757673647e-11 -4.718126992687e-15 
1.750000000000e-01 -1.430714364513e-11 -4.190814934758e-15 
2.000000000000e-01 -7.739513109561e-12 -3.843166366516e-15 
2.250000000000e-01 -8.039055501958e-13 -3.933791429228e-15 
2.500000000000e-01 3.788988659429e-12 -4.459232287715e-15 
2.750000000000e-01 9.151397098956e-12 -5.318903711071e-15 
3.000000000000e-01 1.696706670578e-11 -7.168494480476e-15 
3.250000000000e-01 3.251038487067e-11 -1.096227424211e-14 
3.500000000000e-01 4.889335924184e-11 -1.615774371409e-14 
3.750000000000e-01 5.180582656614e-11 -2.309486132758e-14 
4.000000000000e-01 3.759056519944e-11 -3.454922664124e-14 
4.250000000000e-01 9.864379590696e-12 -5.163804757281e-14 
4.500000000000e-01 -1.160117279481e-11 -7.555925700590e-14 
4.750000000000e-01 -2.715577715978e-11 -1.136503776156e-13 
5.000000000000e-01 -4.449837411385e-11 -1.799243980317e-13 
5.250000000000e-01 -5.103372307762e-11 -3.014483856685e-13 
5.500000000000e-01 -5.445529929868e-11 -5.580681250376e-13 
5.750000000000e-01 -4.992753036065e-11 -1.177572049263e-12 
6.000000000000e-01 -2.422966356415e-11 1.428292049156e-09 
 ZONE T="TIME=6.000000000000e+02"
0.000000000000e+00 -4.462646912238e-11 -4.188603786805e-16 
2.500000000000e-02 -3.939391723677e-11 -1.129168738664e-15 
5.000000000000e-02 -2.933240935644e-11 -2.612690157402e-15 
7.500000000000e-02 -2.270414428728e-11 -3.676506372830e-15 
1.000000000000e-01 -1.945889065749e-11 -3.971162395769e-15 
1.250000000000e-01 -1.614183015849e-11 -3.983519503393e-15 
1.500000000000e-01 -1.392894776486e-11 -3.892196859992e-15 
1.750000000000e-01 -1.166850217680e-11 -3.674182888649e-15 
2.000000000000e-01 -5.819304755771e-12 -3.560329051604e-15 
2.250000000000e-01 3.045094274079e-13 -3.808826276836e-15 
2.500000000000e-01 4.413214305170e-12 -4.474964417348e-15 
2.750000000000e-01 9.280685377298e-12 -5.477784186903e-15 
3.000000000000e-01 1.643391488163e-11 -7.256642302755e-15 
3.250000000000e-01 3.051530530855e-11 -1.047122394360e-14 
3.500000000000e-01 4.520723219177e-11 -1.470788138059e-14 
3.750000000000e-01 4.778348823623e-11 -2.038588929567e-14 
4.000000000000e-01 3.506941213539e-11 -2.978071787209e-14 
4.250000000000e-01 1.008912386363e-11 -4.388822026262e-14 
4.500000000000e-01 -9.372609569093e-12 -6.392716387888e-14 
4.750000000000e-01 -2.348476176158e-11 -9.584000958381e-14 
5.000000000000e-01 -3.933649566015e-11 -1.512012812202e-13 
5.250000000000e-01 -4.557995958625e-11 -2.531801245631e-13 
5.500000000000e-01 -4.896544859905e-11 -4.694748808189e-13 
5.750000000000e-01 -4.493750493023e-11 -9.921762505565e-13 
6.000000000000e-01 -2.145807184784e-11 1.310719094466e-09 
 ZONE T="TIME=6.500000000000e+02"
0.000000000000e+00 -3.887685089925e-11 -3.558506072329e-16 
2.500000000000e-02 -3.428259567201e-11 -9.364268492313e-16 
5.000000000000e-02 -2.542167518376e-11 -2.138942654992e-15 
7.500000000000e-02 -1.952516625881e-11 -3.007491721255e-15 
1.000000000000e-01 -1.658215193548e-11 -3.285937911573e-15 
1.250000000000e-01 -1.353349955232e-11 -3.359257802238e-15 
1.500000000000e-01 -1.139062522825e-11 -3.365333741921e-15 
1.750000000000e-01 -9.148156126098e-12 -3.291841947197e-15 
2.000000000000e-01 -3.725451936623e-12 -3.318548163930e-15 
2.250000000000e-01 1.838229533416e-12 -3.639861683108e-15 
2.500000000000e-01 5.550625603068e-12 -4.295458133022e-15 
2.750000000000e-01 1.005957326736e-11 -5.218199470325e-15 
3.000000000000e-01 1.682334017359e-11 -6.780859957571e-15 
3.250000000000e-01 3.009952125274e-11 -9.560862341579e-15 
3.500000000000e-01 4.381555771421e-11 -1.322405100826e-14 
3.750000000000e-01 4.617134055630e-11 -1.812648044425e-14 
4.000000000000e-01 3.439821381877e-11 -2.621592038495e-14 
4.250000000000e-01 1.110573013925e-11 -3.836126700394e-14 
4.500000000000e-01 -7.084234235491e-12 -5.563249183899e-14 
4.750000000000e-01 -2.012115949363e-11 -8.318166545431e-14 
5.000000000000e-01 -3.492965893492e-11 -1.310329348888e-13 
5.250000000000e-01 -4.106088145548e-11 -2.191773495010e-13 
5.500000000000e-01 -4.446465878402e-11 -4.061391757950e-13 
5.750000000000e-01 -4.084959753097e-11 -8.582016036700e-13 
6.000000000000e-01 -1.914674660629e-11 1.219332463820e-09 
 ZONE T="TIME=7.000000000000e+02"
0.000000000000e+00 -3.413382080278e-11 -2.471731363040e-16 
2.500000000000e-02 -3.007556526391e-11 -6.908279466645e-16 
5.000000000000e-02 -2.222992668380e-11 -1.641108954615e-15 
7.500000000000e-02 -1.696290830193e-11 -2.370542523779e-15 
1.000000000000e-01 -1.428424198608e-11 -2.651818060323e-15 
1.250000000000e-01 -1.148676115983e-11 -2.782896639345e-15 
1.500000000000e-01 -9.441911468435e-12 -2.866537125008e-15 
1.750000000000e-01 -7.260237508704e-12 -2.881417082917e-15 
2.000000000000e-01 -2.259924504897e-12 -2.971882179146e-15 
2.250000000000e-01 2.795842012465e-12 -3.311167389378e-15 
2.500000000000e-01 6.169392584829e-12 -3.950938107938e-15 
2.750000000000e-01 1.034714368905e-11 -4.836626972769e-15 
3.000000000000e-01 1.670449590491e-11 -6.256200170036e-15 
3.250000000000e-01 2.911772537704e-11 -8.663537155880e-15 
3.500000000000e-01 4.182617140091e-11 -1.177755767437e-14 
3.750000000000e-01 4.397183555960e-11 -1.594311934227e-14 
4.000000000000e-01 3.312975844609e-11 -2.282269777627e-14 
4.250000000000e-01 1.154458800408e-11 -3.318521869002e-14 
4.500000000000e-01 -5.377143297506e-12 -4.801484342938e-14 
4.750000000000e-01 -1.742660833334e-11 -7.166612810477e-14 
5.000000000000e-01 -3.121827061322e-11 -1.126955273987e-13 
5.250000000000e-01 -3.715934284977e-11 -1.884232053414e-13 
5.500000000000e-01 -4.053204064027e-11 -3.493531526382e-13 
5.750000000000e-01 -3.730150624132e-11 -7.386902798679e-13 
6.000000000000e-01 -1.727776425374e-11 1.131022088901e-09 
 ZONE T="TIME=7.500000000000e+02"
0.000000000000e+00 -3.018673135284e-11 -1.763851676836e-16 
2.500000000000e-02 -2.657351894680e-11 -5.240752157780e-16 
5.000000000000e-02 -1.956948736110e-11 -1.290411647818e-15 
7.500000000000e-02 -1.482446368418e-11 -1.907325300453e-15 
1.000000000000e-01 -1.236931577405e-11 -2.175697323750e-15 
1.250000000000e-01 -9.783316458484e-12 -2.332030433420e-15 
1.500000000000e-01 -7.823642182079e-12 -2.454640251247e-15 
1.750000000000e-01 -5.698694096557e-12 -2.518529544878e-15 
2.000000000000e-01 -1.049910352999e-12 -2.641686755434e-15 
2.250000000000e-01 3.582981240762e-12 -2.977611912992e-15 
2.500000000000e-01 6.669576314098e-12 -3.582904847491e-15 
2.750000000000e-01 1.056446741049e-11 -4.411919078837e-15 
3.000000000000e-01 1.657320823625e-11 -5.691029026606e-15 
3.250000000000e-01 2.825282150882e-11 -7.784908072581e-15 
3.500000000000e-01 4.010928526108e-11 -1.045328810806e-14 
3.750000000000e-01 4.207829073750e-11 -1.401779582231e-14 
4.000000000000e-01 3.203107739817e-11 -1.991014761285e-14 
4.250000000000e-01 1.191182502737e-11 -2.880917267321e-14 
4.500000000000e-01 -3.912485717074e-12 -4.160042884879e-14 
4.750000000000e-01 -1.509712267141e-11 -6.199931266690e-14 
5.000000000000e-01 -2.799276033777e-11 -9.735998822801e-14 
5.250000000000e-01 -3.375442046595e-11 -1.627113773239e-13 
5.500000000000e-01 -3.708770171762e-11 -3.017674775427e-13 
5.750000000000e-01 -3.420318442073e-11 -6.383406208816e-13 
6.000000000000e-01 -1.569526966169e-11 1.051345528897e-09 
 ZONE T="TIME=8.000000000000e+02"
0.000000000000e+00 -2.720755119362e-11 -2.037169693816e-16 
2.500000000000e-02 -2.390564667908e-11 -5.449747932682e-16 
5.000000000000e-02 -1.747111869346e-11 -1.260568059408e-15 
7.500000000000e-02 -1.305542459387e-11 -1.800401231757e-15 
1.000000000000e-01 -1.074338269200e-11 -2.018914827330e-15 
1.250000000000e-01 -8.271308673408e-12 -2.139015813030e-15 
1.500000000000e-01 -6.319285045651e-12 -2.236980439055e-15 
1.750000000000e-01 -4.177543155689e-12 -2.306409925542e-15 
2.000000000000e-01 3.231416288761e-13 -2.446175585480e-15 
2.250000000000e-01 4.708405641498e-12 -2.766254838626e-15 
2.500000000000e-01 7.577736919763e-12 -3.298292046510e-15 
2.750000000000e-01 1.130039899370e-11 -3.999126349518e-15 
3.000000000000e-01 1.717633030656e-11 -5.094967185995e-15 
3.250000000000e-01 2.860963441113e-11 -6.954888046227e-15 
3.500000000000e-01 4.013072319587e-11 -9.361626872491e-15 
3.750000000000e-01 4.201678870488e-11 -1.256051817899e-14 
4.000000000000e-01 3.239256444582e-11 -1.784266507939e-14 
4.250000000000e-01 1.300112933719e-11 -2.580595868790e-14 
4.500000000000e-01 -2.248393141252e-12 -3.717815213685e-14 
4.750000000000e-01 -1.282456802715e-11 -5.533515452232e-14 
5.000000000000e-01 -2.515484086289e-11 -8.689620785501e-14 
5.250000000000e-01 -3.090586374489e-11 -1.450877925500e-13 
5.500000000000e-01 -3.427484444936e-11 -2.686265017983e-13 
5.750000000000e-01 -3.168803532139e-11 -5.676471943852e-13 
6.000000000000e-01 -1.437256770194e-11 9.915968226354e-10 
 ZONE T="TIME=8.500000000000e+02"
0.000000000000e+00 -2.493423658201e-11 -2.050531140945e-16 
2.500000000000e-02 -2.186849387967e-11 -5.324811669226e-16 
5.000000000000e-02 -1.586464172986e-11 -1.205592201849e-15 
7.500000000000e-02 -1.169598571698e-11 -1.696065807484e-15 
1.000000000000e-01 -9.491563545047e-12 -1.881093062245e-15 
1.250000000000e-01 -7.108926947112e-12 -1.973846953580e-15 
1.500000000000e-01 -5.167789981750e-12 -2.049335724015e-15 
1.750000000000e-01 -3.019454713685e-12 -2.109278246248e-15 
2.000000000000e-01 1.360302221033e-12 -2.239746534880e-15 
2.250000000000e-01 5.550303913581e-12 -2.527708003028e-15 
2.500000000000e-01 8.249440749765e-12 -2.994614308440e-15 
2.750000000000e-01 1.183496094246e-11 -3.599714987156e-15 
3.000000000000e-01 1.760032121590e-11 -4.559316492168e-15 
3.250000000000e-01 2.881386569450e-11 -6.225979335175e-15 
3.500000000000e-01 4.003843162606e-11 -8.392779544619e-15 
3.750000000000e-01 4.185606782097e-11 -1.125910743054e-14 
4.000000000000e-01 3.260536073087e-11 -1.600247390216e-14 
4.250000000000e-01 1.386170149711e-11 -2.315896694600e-14 
4.500000000000e-01 -8.871996694623e-13 -3.334170160468e-14 
4.750000000000e-01 -1.094961176820e-11 -4.959849681022e-14 
5.000000000000e-01 -2.278348379740e-11 -7.788999850964e-14 
5.250000000000e-01 -2.850969883280e-11 -1.299893346593e-13 
5.500000000000e-01 -3.190441187534e-11 -2.404552126104e-13 
5.750000000000e-01 -2.959098236086e-11 -5.078226800298e-13 
6.000000000000e-01 -1.334530551016e-11 9.375869899983e-10 
 ZONE T="TIME=9.000000000000e+02"
0.000000000000e+00 -2.311391031188e-11 -1.732860564294e-16 
2.500000000000e-02 -2.024564825047e-11 -4.650574417650e-16 
5.000000000000e-02 -1.460901757152e-11 -1.073510637215e-15 
7.500000000000e-02 -1.066076702928e-11 -1.523191673017e-15 
1.000000000000e-01 -8.553345967210e-12 -1.692942310837e-15 
1.250000000000e-01 -6.262491937174e-12 -1.777997341130e-15 
1.500000000000e-01 -4.356417425180e-12 -1.846695791269e-15 
1.750000000000e-01 -2.233226633560e-12 -1.897917590050e-15 
2.000000000000e-01 1.996573775861e-12 -2.008979508769e-15 
2.250000000000e-01 5.995441950412e-12 -2.262416254315e-15 
2.500000000000e-01 8.550563147129e-12 -2.683548942497e-15 
2.750000000000e-01 1.199671620559e-11 -3.233925839605e-15 
3.000000000000e-01 1.759963533737e-11 -4.102026559665e-15 
3.250000000000e-01 2.846990667402e-11 -5.596762446007e-15 
3.500000000000e-01 3.928627783474e-11 -7.521228518735e-15 
3.750000000000e-01 4.101671585708e-11 -1.005789075889e-14 
4.000000000000e-01 3.217718014303e-11 -1.427479132640e-14 
4.250000000000e-01 1.419591510948e-11 -2.065677984827e-14 
4.500000000000e-01 2.216246419020e-14 -2.974136046138e-14 
4.750000000000e-01 -9.551983282349e-12 -4.423092228060e-14 
5.000000000000e-01 -2.086687482334e-11 -6.943648447495e-14 
5.250000000000e-01 -2.648834384346e-11 -1.158638186831e-13 
5.500000000000e-01 -2.985879149111e-11 -2.143141665581e-13 
5.750000000000e-01 -2.779231947737e-11 -4.526093284688e-13 
6.000000000000e-01 -1.256285053353e-11 8.846902299722e-10 
 ZONE T="TIME=9.500000000000e+02"
0.000000000000e+00 -2.143822362906e-11 -1.021208387865e-16 
2.500000000000e-02 -1.877120512877e-11 -3.258761827905e-16 
5.000000000000e-02 -1.352459053538e-11 -8.264801855469e-16 
7.500000000000e-02 -9.832543382514e-12 -1.231466058856e-15 
1.000000000000e-01 -7.840467051113e-12 -1.405173809355e-15 
1.250000000000e-01 -5.675597025180e-12 -1.508659657665e-15 
1.500000000000e-01 -3.853823007706e-12 -1.595037760096e-15 
1.750000000000e-01 -1.812425406499e-12 -1.649201109175e-15 
2.000000000000e-01 2.176891882498e-12 -1.741214080448e-15 
2.250000000000e-01 5.934915975554e-12 -1.965475239837e-15 
2.500000000000e-01 8.347842176690e-12 -2.364742946013e-15 
2.750000000000e-01 1.161539667177e-11 -2.904253263714e-15 
3.000000000000e-01 1.693537209868e-11 -3.722035545824e-15 
3.250000000000e-01 2.719550619107e-11 -5.048962624120e-15 
3.500000000000e-01 3.734665221252e-11 -6.704232167579e-15 
3.750000000000e-01 3.894714247164e-11 -8.882999251462e-15 