 TITLE = "Profiles along polylines"
 VARIABLES = "DIST" "VELOCITY_X2" "VELOCITY_Y2" 
 ZONE T="TIME=0.000000000000e+00"
0.000000000000e+00 0.000000000000e+00 0.000000000000e+00 
2.500000000000e-02 0.000000000000e+00 0.000000000000e+00 
5.000000000000e-02 0.000000000000e+00 0.000000000000e+00 
7.500000000000e-02 0.000000000000e+00 0.000000000000e+00 
1.000000000000e-01 0.000000000000e+00 0.000000000000e+00 
1.250000000000e-01 0.000000000000e+00 0.000000000000e+00 
1.500000000000e-01 0.000000000000e+00 0.000000000000e+00 
1.750000000000e-01 0.000000000000e+00 0.000000000000e+00 
2.000000000000e-01 0.000000000000e+00 0.000000000000e+00 
2.250000000000e-01 0.000000000000e+00 0.000000000000e+00 
2.500000000000e-01 0.000000000000e+00 0.000000000000e+00 
2.750000000000e-01 0.000000000000e+00 0.000000000000e+00 
3.000000000000e-01 0.000000000000e+00 0.000000000000e+00 
3.250000000000e-01 0.000000000000e+00 0.000000000000e+00 
3.500000000000e-01 0.000000000000e+00 0.000000000000e+00 
3.750000000000e-01 0.000000000000e+00 0.000000000000e+00 
4.000000000000e-01 0.000000000000e+00 0.000000000000e+00 
4.250000000000e-01 0.000000000000e+00 0.000000000000e+00 
4.500000000000e-01 0.000000000000e+00 0.000000000000e+00 
4.750000000000e-01 0.000000000000e+00 0.000000000000e+00 
5.000000000000e-01 0.000000000000e+00 0.000000000000e+00 
5.250000000000e-01 0.000000000000e+00 0.000000000000e+00 
5.500000000000e-01 0.000000000000e+00 0.000000000000e+00 
5.750000000000e-01 0.000000000000e+00 0.000000000000e+00 
6.000000000000e-01 0.000000000000e+00 0.000000000000e+00 
 TITLE = "Profiles along polylines"
 VARIABLES = "DIST" "VELOCITY_X2" "VELOCITY_Y2" 
 ZONE T="TIME=5.000000000000e+01"
0.000000000000e+00 4.004807732051e-10 -4.289389454801e-13 
2.500000000000e-02 3.493741938516e-10 -7.022369542859e-13 
5.000000000000e-02 2.888932590006e-10 -9.469871172203e-13 
7.500000000000e-02 2.798112318880e-10 -7.889004346767e-13 
1.000000000000e-01 2.392499502685e-10 -5.872562001366e-13 
1.250000000000e-01 1.682706135481e-10 -4.556205281978e-13 
1.500000000000e-01 1.427605676281e-10 -4.806662252443e-13 
1.750000000000e-01 1.568989387602e-10 -7.427417295573e-13 
2.000000000000e-01 1.314152962875e-10 -9.489545533237e-13 
2.250000000000e-01 3.211601260753e-11 -7.794111915928e-13 
2.500000000000e-01 -4.052413190765e-11 -2.688729388248e-13 
2.750000000000e-01 -5.083605761363e-11 3.581547306350e-13 
3.000000000000e-01 -5.214795320639e-11 8.075765641771e-13 
3.250000000000e-01 -2.830889744062e-11 9.782812280641e-13 
3.500000000000e-01 -3.600684867599e-12 1.051232030916e-12 
3.750000000000e-01 2.291150064570e-12 1.179769281386e-12 
4.000000000000e-01 4.401535364704e-11 1.442805983192e-12 
4.250000000000e-01 9.022003319249e-11 1.569223677779e-12 
4.500000000000e-01 9.138027330704e-11 1.021069263147e-12 
4.750000000000e-01 1.004773901503e-10 -1.851108776102e-13 
5.000000000000e-01 1.093826941943e-10 -1.388007317034e-12 
5.250000000000e-01 8.569943391039e-11 -2.114370323277e-12 
5.500000000000e-01 9.130537816191e-11 -3.256453053810e-12 
5.750000000000e-01 1.520954850515e-10 -7.852705321436e-12 
6.000000000000e-01 2.232986553299e-10 4.085746451998e-09 
 ZONE T="TIME=1.000000000000e+02"
0.000000000000e+00 1.996416724745e-10 -1.063073861196e-13 
2.500000000000e-02 1.718895347252e-10 -1.759270762602e-13 
5.000000000000e-02 1.409672258610e-10 -2.524888445747e-13 
7.500000000000e-02 1.366596281289e-10 -2.434058645791e-13 
1.000000000000e-01 1.097309746693e-10 -2.141713688217e-13 
1.250000000000e-01 6.374361785203e-11 -1.910407325572e-13 
1.500000000000e-01 4.333845376156e-11 -1.984310689219e-13 
1.750000000000e-01 4.942902502709e-11 -2.451542619748e-13 
2.000000000000e-01 3.785527069577e-11 -2.756016108305e-13 
2.250000000000e-01 -1.708610863706e-11 -2.245208623860e-13 
2.500000000000e-01 -5.854224520548e-11 -8.140751211722e-14 
2.750000000000e-01 -6.457895887620e-11 1.018121536678e-13 
3.000000000000e-01 -6.811270640204e-11 2.427730887087e-13 
3.250000000000e-01 -5.680340662560e-11 3.138703976781e-13 
3.500000000000e-01 -4.455003801032e-11 3.467100108002e-13 
3.750000000000e-01 -4.463662354707e-11 3.626185497673e-13 
4.000000000000e-01 -2.490558079035e-11 3.721420684080e-13 
4.250000000000e-01 -9.227411779995e-12 3.153248558326e-13 
4.500000000000e-01 -2.675213667555e-11 1.018787741282e-13 
4.750000000000e-01 -2.914148659513e-11 -2.346648763358e-13 
5.000000000000e-01 -7.438732102747e-12 -6.069657505659e-13 
5.250000000000e-01 5.492854298650e-12 -1.059001439861e-12 
5.500000000000e-01 2.625116370410e-11 -2.000600528776e-12 
5.750000000000e-01 7.488699274309e-11 -4.653893741425e-12 
6.000000000000e-01 1.330579074619e-10 2.780863286551e-09 
 ZONE T="TIME=1.500000000000e+02"
0.000000000000e+00 7.019712626004e-11 -5.262142487619e-14 
2.500000000000e-02 5.435779462826e-11 -8.614834768005e-14 
5.000000000000e-02 4.249560368857e-11 -1.243290126823e-13 
7.500000000000e-02 4.613789001323e-11 -1.257081488254e-13 
1.000000000000e-01 2.704944551779e-11 -1.188938579893e-13 
1.250000000000e-01 -7.119675993137e-12 -1.107171361159e-13 
1.500000000000e-01 -2.437759519243e-11 -1.107358391198e-13 
1.750000000000e-01 -1.966844885299e-11 -1.238283198172e-13 
2.000000000000e-01 -2.181220521177e-11 -1.314517456125e-13 
2.250000000000e-01 -5.638591288287e-11 -1.076077131676e-13 
2.500000000000e-01 -8.514805413801e-11 -4.357259096434e-14 
2.750000000000e-01 -9.086373727930e-11 3.871127173679e-14 
3.000000000000e-01 -9.945397725286e-11 1.034056065756e-13 
3.250000000000e-01 -9.704138210094e-11 1.376650370946e-13 
3.500000000000e-01 -9.227120017919e-11 1.500057180569e-13 
3.750000000000e-01 -9.612435418402e-11 1.477478978535e-13 
4.000000000000e-01 -8.542670155144e-11 1.381711129679e-13 
4.250000000000e-01 -8.770786045802e-11 8.984728802535e-14 
4.500000000000e-01 -1.244788446876e-10 -4.326810592539e-14 
4.750000000000e-01 -1.369656100536e-10 -2.426511511611e-13 
5.000000000000e-01 -1.021574668329e-10 -4.789606363380e-13 
5.250000000000e-01 -6.215827519598e-11 -8.173767320321e-13 
5.500000000000e-01 -3.189798592480e-11 -1.561166664118e-12 
5.750000000000e-01 7.483711706854e-12 -3.591155471609e-12 
6.000000000000e-01 5.939123886736e-11 2.404517289021e-09 
 ZONE T="TIME=2.000000000000e+02"
0.000000000000e+00 -4.340165877336e-11 -3.112049517120e-14 
2.500000000000e-02 -4.975766904329e-11 -5.034510851262e-14 
5.000000000000e-02 -4.544375917703e-11 -7.279383976125e-14 
7.500000000000e-02 -3.426359908231e-11 -7.650192679191e-14 
1.000000000000e-01 -4.698440428775e-11 -7.659052563304e-14 
1.250000000000e-01 -7.183139521072e-11 -7.332326856968e-14 
1.500000000000e-01 -8.628755542226e-11 -7.105835409823e-14 
1.750000000000e-01 -8.160673200456e-11 -7.467040902893e-14 
2.000000000000e-01 -7.500497838005e-11 -7.814359577434e-14 
2.250000000000e-01 -9.337098016330e-11 -6.675112267657e-14 
2.500000000000e-01 -1.121817281486e-10 -3.232207288291e-14 
2.750000000000e-01 -1.175033191493e-10 1.224275214966e-14 
3.000000000000e-01 -1.307096826623e-10 4.663193822136e-14 
3.250000000000e-01 -1.355735143540e-10 6.353010464905e-14 
3.500000000000e-01 -1.365722168560e-10 6.562949764387e-14 
3.750000000000e-01 -1.432938554310e-10 5.796157839005e-14 
4.000000000000e-01 -1.388556029857e-10 4.634249877553e-14 
4.250000000000e-01 -1.549747902665e-10 8.293033496999e-15 
4.500000000000e-01 -2.079662197854e-10 -8.611343619561e-14 
4.750000000000e-01 -2.289514007731e-10 -2.240243031443e-13 
5.000000000000e-01 -1.831026185207e-10 -3.946169719594e-13 
5.250000000000e-01 -1.210688406511e-10 -6.594325928394e-13 
5.500000000000e-01 -8.386220098732e-11 -1.256904032839e-12 
5.750000000000e-01 -5.325733556311e-11 -2.873049985275e-12 
6.000000000000e-01 -7.126334151022e-12 2.133707963567e-09 
 ZONE T="TIME=2.500000000000e+02"
0.000000000000e+00 -1.332258109925e-10 -2.085682267531e-14 
2.500000000000e-02 -1.324415833994e-10 -3.334955498198e-14 
5.000000000000e-02 -1.156075702015e-10 -4.829635847556e-14 
7.500000000000e-02 -9.841554589209e-11 -5.264684323027e-14 
1.000000000000e-01 -1.064489041387e-10 -5.546159457326e-14 
1.250000000000e-01 -1.244469033738e-10 -5.440373399690e-14 
1.500000000000e-01 -1.368306598203e-10 -5.163121612236e-14 
1.750000000000e-01 -1.318667326766e-10 -5.223437928138e-14 
2.000000000000e-01 -1.181886508095e-10 -5.518977139207e-14 
2.250000000000e-01 -1.242860517141e-10 -4.982856502970e-14 
2.500000000000e-01 -1.355893722384e-10 -2.826867382189e-14 
2.750000000000e-01 -1.404442689687e-10 3.266541442140e-17 
3.000000000000e-01 -1.571955048930e-10 2.103457654257e-14 
3.250000000000e-01 -1.673926492311e-10 2.976210373515e-14 
3.500000000000e-01 -1.723887307277e-10 2.712804540618e-14 
3.750000000000e-01 -1.809400855241e-10 1.790966201965e-14 
4.000000000000e-01 -1.805793061146e-10 7.177314741671e-15 
4.250000000000e-01 -2.065935663938e-10 -2.338471796128e-14 
4.500000000000e-01 -2.717409544497e-10 -9.603198834242e-14 
4.750000000000e-01 -2.991379262502e-10 -2.006766363151e-13 
5.000000000000e-01 -2.450226826820e-10 -3.335924979253e-13 
5.250000000000e-01 -1.666807363930e-10 -5.495636367880e-13 
5.500000000000e-01 -1.248552449958e-10 -1.044654419471e-12 
5.750000000000e-01 -1.017700384998e-10 -2.380360680764e-12 
6.000000000000e-01 -6.073874010604e-11 1.934652924111e-09 
 ZONE T="TIME=3.000000000000e+02"
0.000000000000e+00 -2.016584905777e-10 -1.470008814041e-14 
2.500000000000e-02 -1.954756394712e-10 -2.323799241354e-14 
5.000000000000e-02 -1.692164774131e-10 -3.378223595723e-14 
7.500000000000e-02 -1.475749955495e-10 -3.833074257278e-14 
1.000000000000e-01 -1.521097746060e-10 -4.242941198894e-14 
1.250000000000e-01 -1.649073295970e-10 -4.261667565892e-14 
1.500000000000e-01 -1.757256465681e-10 -3.988973963959e-14 
1.750000000000e-01 -1.705579856616e-10 -3.920144994618e-14 
2.000000000000e-01 -1.514699063975e-10 -4.198243120848e-14 
2.250000000000e-01 -1.481683616907e-10 -3.987550944754e-14 
2.500000000000e-01 -1.536480075511e-10 -2.539912973365e-14 
2.750000000000e-01 -1.579935728277e-10 -6.015510139693e-15 
3.000000000000e-01 -1.772356744468e-10 7.749964465852e-15 
3.250000000000e-01 -1.912349246305e-10 1.223068336836e-14 
3.500000000000e-01 -1.989829363312e-10 7.508407824257e-15 
3.750000000000e-01 -2.086393697203e-10 -1.855457629631e-15 
4.000000000000e-01 -2.110868428734e-10 -1.142550972606e-14 
4.250000000000e-01 -2.441327875282e-10 -3.654842685955e-14 
4.500000000000e-01 -3.178593055659e-10 -9.424481375629e-14 
4.750000000000e-01 -3.499067479736e-10 -1.760106080780e-13 
5.000000000000e-01 -2.901105479061e-10 -2.819471287245e-13 
5.250000000000e-01 -2.003002672021e-10 -4.607080761362e-13 
5.500000000000e-01 -1.557037383190e-10 -8.759674840689e-13 
5.750000000000e-01 -1.390705103975e-10 -1.993985389509e-12 
6.000000000000e-01 -1.027745512542e-10 1.765830467004e-09 
 ZONE T="TIME=3.500000000000e+02"
0.000000000000e+00 -2.511739361708e-10 -1.083568606513e-14 
2.500000000000e-02 -2.410421468514e-10 -1.694264367848e-14 
5.000000000000e-02 -2.080110352447e-10 -2.473405045484e-14 
7.500000000000e-02 -1.832760590351e-10 -2.915923310808e-14 
1.000000000000e-01 -1.852314182101e-10 -3.370752518277e-14 
1.250000000000e-01 -1.941099635363e-10 -3.454226125410e-14 
1.500000000000e-01 -2.037247597331e-10 -3.202730557563e-14 
1.750000000000e-01 -1.984672084561e-10 -3.078719469260e-14 
2.000000000000e-01 -1.754863500416e-10 -3.339200380553e-14 
2.250000000000e-01 -1.652049777527e-10 -3.302388827579e-14 
2.500000000000e-01 -1.662817033199e-10 -2.276337463065e-14 
2.750000000000e-01 -1.701545460491e-10 -8.727394398550e-15 
3.000000000000e-01 -1.910319958438e-10 8.119664879665e-16 
3.250000000000e-01 -2.076490162207e-10 3.006499347422e-15 
3.500000000000e-01 -2.172598157232e-10 -2.477307474011e-15 
3.750000000000e-01 -2.275520552910e-10 -1.135879026435e-14 
4.000000000000e-01 -2.319603459943e-10 -1.973506832209e-14 
4.250000000000e-01 -2.698594302894e-10 -4.066420525110e-14 
4.500000000000e-01 -3.492967472996e-10 -8.750422400013e-14 
4.750000000000e-01 -3.845950568230e-10 -1.528377180708e-13 
5.000000000000e-01 -3.212606156479e-10 -2.387399583786e-13 
5.250000000000e-01 -2.239070497979e-10 -3.882303310520e-13 
5.500000000000e-01 -1.779651404406e-10 -7.393556616584e-13 
5.750000000000e-01 -1.667980388127e-10 -1.683371209773e-12 
6.000000000000e-01 -1.348509155809e-10 1.619611669345e-09 
 ZONE T="TIME=4.000000000000e+02"
0.000000000000e+00 -2.848806836884e-10 -8.415290455875e-15 
2.500000000000e-02 -2.719920706966e-10 -1.303642786222e-14 
5.000000000000e-02 -2.343714086988e-10 -1.909131445392e-14 
7.500000000000e-02 -2.076392829774e-10 -2.320870781592e-14 
1.000000000000e-01 -2.077382038394e-10 -2.772819704894e-14 
1.250000000000e-01 -2.137249799929e-10 -2.883732020425e-14 
1.500000000000e-01 -2.224046185685e-10 -2.657399336386e-14 
1.750000000000e-01 -2.171399574726e-10 -2.517714789441e-14 
2.000000000000e-01 -1.915414853908e-10 -2.761385897691e-14 
2.250000000000e-01 -1.763023111633e-10 -2.811464366774e-14 
2.500000000000e-01 -1.741795993763e-10 -2.038458847687e-14 
2.750000000000e-01 -1.776590568825e-10 -9.607467172518e-15 
3.000000000000e-01 -1.995243072936e-10 -2.566788484637e-15 
3.250000000000e-01 -2.178655363447e-10 -1.586021982369e-15 
3.500000000000e-01 -2.287075224207e-10 -7.168673154717e-15 
3.750000000000e-01 -2.393476200829e-10 -1.531567304630e-14 
4.000000000000e-01 -2.451282504874e-10 -2.254726988320e-14 
4.250000000000e-01 -2.862387081267e-10 -4.017209731410e-14 
4.500000000000e-01 -3.692035188704e-10 -7.905404648599e-14 
4.750000000000e-01 -4.066824657937e-10 -1.325935152455e-13 
5.000000000000e-01 -3.414614331486e-10 -2.036681919288e-13 
5.250000000000e-01 -2.395917264646e-10 -3.301830505268e-13 
5.500000000000e-01 -1.933384295224e-10 -6.299061367829e-13 
5.750000000000e-01 -1.867250922136e-10 -1.435318959889e-12 
6.000000000000e-01 -1.586751763832e-10 1.494081547703e-09 
 ZONE T="TIME=4.500000000000e+02"
0.000000000000e+00 -3.034961554248e-10 -7.463907404188e-15 
2.500000000000e-02 -2.890906747002e-10 -1.153010977829e-14 
5.000000000000e-02 -2.489776742812e-10 -1.684743069263e-14 
7.500000000000e-02 -2.211840869166e-10 -2.055559498732e-14 
1.000000000000e-01 -2.202179380607e-10 -2.474796214183e-14 
1.250000000000e-01 -2.245145555967e-10 -2.584943258674e-14 
1.500000000000e-01 -2.326027577485e-10 -2.382054438610e-14 
1.750000000000e-01 -2.273212570312e-10 -2.268137522095e-14 
2.000000000000e-01 -2.002872313357e-10 -2.521080765718e-14 
2.250000000000e-01 -1.822688843088e-10 -2.596507097844e-14 
2.500000000000e-01 -1.783214228230e-10 -1.915523707782e-14 
2.750000000000e-01 -1.815489747863e-10 -9.599456655301e-15 
3.000000000000e-01 -2.039103159010e-10 -3.480785149007e-15 
3.250000000000e-01 -2.231621369195e-10 -2.942813390578e-15 
3.500000000000e-01 -2.346365499817e-10 -8.369826162156e-15 
3.750000000000e-01 -2.454006737529e-10 -1.577658963400e-14 
4.000000000000e-01 -2.518971198503e-10 -2.181313957616e-14 
4.250000000000e-01 -2.946941368392e-10 -3.695522662822e-14 
4.500000000000e-01 -3.794629090519e-10 -7.130014458892e-14 
4.750000000000e-01 -4.182203170354e-10 -1.188583214052e-13 
5.000000000000e-01 -3.523513958093e-10 -1.818614182739e-13 
5.250000000000e-01 -2.484619535020e-10 -2.936519587217e-13 
5.500000000000e-01 -2.026270540884e-10 -5.588758865900e-13 
5.750000000000e-01 -1.994111273508e-10 -1.273745803244e-12 
6.000000000000e-01 -1.744028824601e-10 1.408152523543e-09 
 ZONE T="TIME=5.000000000000e+02"
0.000000000000e+00 -3.173494394312e-10 -5.807323628237e-15 
2.500000000000e-02 -3.015604796331e-10 -8.892820802601e-15 
5.000000000000e-02 -2.595440481731e-10 -1.308834362575e-14 
7.500000000000e-02 -2.312094811847e-10 -1.654596672395e-14 
1.000000000000e-01 -2.291774817603e-10 -2.054766736277e-14 
1.250000000000e-01 -2.316515270181e-10 -2.173759843750e-14 
1.500000000000e-01 -2.390640294727e-10 -1.992795903935e-14 
1.750000000000e-01 -2.339769480703e-10 -1.861766232412e-14 
2.000000000000e-01 -2.059663314088e-10 -2.071277519442e-14 
2.250000000000e-01 -1.852845549755e-10 -2.176146737596e-14 
2.500000000000e-01 -1.794577241413e-10 -1.656940114171e-14 
2.750000000000e-01 -1.824068150350e-10 -9.142986970139e-15 
3.000000000000e-01 -2.049421092967e-10 -4.526498008751e-15 
3.250000000000e-01 -2.249177147821e-10 -4.446638869185e-15 
3.500000000000e-01 -2.370011370422e-10 -9.464989560074e-15 
3.750000000000e-01 -2.478691720772e-10 -1.612294984235e-14 
4.000000000000e-01 -2.552743756260e-10 -2.158345628286e-14 
4.250000000000e-01 -2.994656879020e-10 -3.472437504805e-14 
4.500000000000e-01 -3.850250656980e-10 -6.329613065870e-14 
4.750000000000e-01 -4.246260398282e-10 -1.017481408264e-13 
5.000000000000e-01 -3.589359546415e-10 -1.532498108745e-13 
5.250000000000e-01 -2.541717852060e-10 -2.478650204410e-13 
5.500000000000e-01 -2.091530730221e-10 -4.748355374363e-13 
5.750000000000e-01 -2.092235728487e-10 -1.084611159769e-12 
6.000000000000e-01 -1.874868551503e-10 1.296366032931e-09 
 ZONE T="TIME=5.500000000000e+02"
0.000000000000e+00 -3.238076498487e-10 -4.790103263478e-15 
2.500000000000e-02 -3.072173980144e-10 -7.291191234602e-15 
5.000000000000e-02 -2.642972717349e-10 -1.075008647431e-14 
7.500000000000e-02 -2.358565117810e-10 -1.383863537387e-14 
1.000000000000e-01 -2.330807864072e-10 -1.748318629873e-14 
1.250000000000e-01 -2.342353911749e-10 -1.862518714071e-14 
1.500000000000e-01 -2.410764529380e-10 -1.702019681780e-14 
1.750000000000e-01 -2.361661730031e-10 -1.576040431375e-14 
2.000000000000e-01 -2.077707089435e-10 -1.759763346744e-14 
2.250000000000e-01 -1.854662783356e-10 -1.872721329390e-14 
2.500000000000e-01 -1.784167349643e-10 -1.454067118364e-14 
2.750000000000e-01 -1.811789096970e-10 -8.478289903709e-15 
3.000000000000e-01 -2.036639320779e-10 -4.802826832622e-15 
3.250000000000e-01 -2.240075026629e-10 -4.974194735661e-15 
3.500000000000e-01 -2.364579810580e-10 -9.575267119114e-15 
3.750000000000e-01 -2.473475037352e-10 -1.550240465682e-14 
4.000000000000e-01 -2.553831359714e-10 -2.024281409231e-14 
4.250000000000e-01 -3.002524187440e-10 -3.151107862360e-14 
4.500000000000e-01 -3.857348196176e-10 -5.571783385929e-14 
4.750000000000e-01 -4.257209501885e-10 -8.784258127355e-14 
5.000000000000e-01 -3.608370966386e-10 -1.310720141969e-13 
5.250000000000e-01 -2.564397462688e-10 -2.119245459853e-13 
5.500000000000e-01 -2.125964643460e-10 -4.071980461289e-13 
5.750000000000e-01 -2.153955945437e-10 -9.316002505883e-13 
6.000000000000e-01 -1.965369885019e-10 1.200999197184e-09 
 ZONE T="TIME=6.000000000000e+02"
0.000000000000e+00 -3.242137614412e-10 -4.193610868219e-15 
2.500000000000e-02 -3.073156647462e-10 -6.370605125612e-15 
5.000000000000e-02 -2.643252569737e-10 -9.384602991431e-15 
7.500000000000e-02 -2.361438233954e-10 -1.212402124040e-14 
1.000000000000e-01 -2.329285100520e-10 -1.539138995134e-14 
1.250000000000e-01 -2.332314387827e-10 -1.643614900714e-14 
1.500000000000e-01 -2.396254641271e-10 -1.501563542497e-14 
1.750000000000e-01 -2.348790961487e-10 -1.391075505157e-14 
2.000000000000e-01 -2.065707840313e-10 -1.560976637195e-14 
2.250000000000e-01 -1.835154143505e-10 -1.670327637840e-14 
2.500000000000e-01 -1.757953281885e-10 -1.307082232499e-14 
2.750000000000e-01 -1.784363510104e-10 -7.783571947363e-15 
3.000000000000e-01 -2.006865047951e-10 -4.613631883639e-15 
3.250000000000e-01 -2.210900263882e-10 -4.864946368261e-15 
3.500000000000e-01 -2.336870191298e-10 -9.059046522109e-15 
3.750000000000e-01 -2.445221371780e-10 -1.432492872073e-14 
4.000000000000e-01 -2.529340632623e-10 -1.836276961004e-14 
4.250000000000e-01 -2.978691371501e-10 -2.807730226720e-14 
4.500000000000e-01 -3.825655688023e-10 -4.912415717338e-14 
4.750000000000e-01 -4.225426964759e-10 -7.693620775874e-14 
5.000000000000e-01 -3.589280871196e-10 -1.143256021520e-13 
5.250000000000e-01 -2.558676147727e-10 -1.846311974856e-13 
5.500000000000e-01 -2.134250516550e-10 -3.550024783740e-13 
5.750000000000e-01 -2.183684625441e-10 -8.130959453806e-13 
6.000000000000e-01 -2.019298215183e-10 1.122358812445e-09 
 ZONE T="TIME=6.500000000000e+02"
0.000000000000e+00 -3.213893517032e-10 -3.634556826137e-15 
2.500000000000e-02 -3.043994465025e-10 -5.508596510107e-15 
5.000000000000e-02 -2.617689656874e-10 -8.121318654480e-15 
7.500000000000e-02 -2.340836185874e-10 -1.056643784388e-14 
1.000000000000e-01 -2.305515499562e-10 -1.350131306829e-14 
1.250000000000e-01 -2.301686138500e-10 -1.445875191945e-14 
1.500000000000e-01 -2.361555755602e-10 -1.320197854115e-14 
1.750000000000e-01 -2.316089327292e-10 -1.220386635226e-14 
2.000000000000e-01 -2.036544901002e-10 -1.372870456860e-14 
2.250000000000e-01 -1.802095707545e-10 -1.476746254258e-14 
2.500000000000e-01 -1.720254186789e-10 -1.163989451512e-14 
2.750000000000e-01 -1.745654406281e-10 -7.059712791342e-15 
3.000000000000e-01 -1.964483945977e-10 -4.336791221287e-15 
3.250000000000e-01 -2.167545048946e-10 -4.619880631692e-15 
3.500000000000e-01 -2.294038690598e-10 -8.396104946078e-15 
3.750000000000e-01 -2.401476740941e-10 -1.306177317587e-14 
4.000000000000e-01 -2.488649399792e-10 -1.655243725928e-14 
4.250000000000e-01 -2.935603724342e-10 -2.498872197314e-14 
4.500000000000e-01 -3.769890357845e-10 -4.321823428953e-14 
4.750000000000e-01 -4.166957307577e-10 -6.705056540074e-14 
5.000000000000e-01 -3.546565659291e-10 -9.910522813976e-14 
5.250000000000e-01 -2.535020852082e-10 -1.600709908870e-13 
5.500000000000e-01 -2.125700193083e-10 -3.085091560794e-13 
5.750000000000e-01 -2.193110503164e-10 -7.076928188099e-13 
6.000000000000e-01 -2.050639785803e-10 1.046775625476e-09 
 ZONE T="TIME=7.000000000000e+02"
0.000000000000e+00 -3.162066527929e-10 -3.146935281891e-15 
2.500000000000e-02 -2.992920849644e-10 -4.758651372731e-15 
5.000000000000e-02 -2.573337170984e-10 -7.020692520249e-15 
7.500000000000e-02 -2.303000252868e-10 -9.196414331839e-15 
1.000000000000e-01 -2.265441054186e-10 -1.182223750859e-14 
1.250000000000e-01 -2.256115162769e-10 -1.269317344823e-14 
1.500000000000e-01 -2.312218637415e-10 -1.158229953983e-14 
1.750000000000e-01 -2.268879603273e-10 -1.067720068431e-14 
2.000000000000e-01 -1.994793187471e-10 -1.203005636906e-14 
2.250000000000e-01 -1.759348392275e-10 -1.300164654233e-14 
2.500000000000e-01 -1.674604007083e-10 -1.031652344548e-14 
2.750000000000e-01 -1.699191321505e-10 -6.360293844824e-15 
3.000000000000e-01 -1.913448677822e-10 -4.025261467501e-15 
3.250000000000e-01 -2.114352127383e-10 -4.318503415468e-15 
3.500000000000e-01 -2.240606629562e-10 -7.697523777087e-15 
3.750000000000e-01 -2.346809343049e-10 -1.182101056726e-14 
4.000000000000e-01 -2.436285988438e-10 -1.484538241690e-14 
4.250000000000e-01 -2.878418342008e-10 -2.217299103386e-14 
4.500000000000e-01 -3.696524217456e-10 -3.793187991266e-14 
4.750000000000e-01 -4.088868239246e-10 -5.828782380542e-14 
5.000000000000e-01 -3.486268990643e-10 -8.568371908227e-14 
5.250000000000e-01 -2.497883698150e-10 -1.384504200705e-13 
5.500000000000e-01 -2.104298515468e-10 -2.675696599521e-13 
5.750000000000e-01 -2.186727042253e-10 -6.147924785433e-13 
6.000000000000e-01 -2.064029750079e-10 9.753912339837e-10 
 ZONE T="TIME=7.500000000000e+02"
0.000000000000e+00 -3.086462678405e-10 -2.818535033117e-15 
2.500000000000e-02 -2.920157510221e-10 -4.262149376381e-15 
5.000000000000e-02 -2.510568922697e-10 -6.282927559570e-15 
7.500000000000e-02 -2.247997981793e-10 -8.219311592298e-15 
1.000000000000e-01 -2.209562000685e-10 -1.056411563407e-14 
1.250000000000e-01 -2.196944920949e-10 -1.134742352069e-14 
1.500000000000e-01 -2.249928317137e-10 -1.036335846351e-14 
1.750000000000e-01 -2.208533413976e-10 -9.574695994337e-15 
2.000000000000e-01 -1.941693386441e-10 -1.081353239514e-14 
2.250000000000e-01 -1.709041578760e-10 -1.170079222813e-14 
2.500000000000e-01 -1.623879431668e-10 -9.301334365829e-15 
2.750000000000e-01 -1.647934026717e-10 -5.758858092289e-15 
3.000000000000e-01 -1.856939250837e-10 -3.666151560546e-15 
3.250000000000e-01 -2.054348768248e-10 -3.934478741952e-15 
3.500000000000e-01 -2.179308782654e-10 -6.968383512585e-15 
3.750000000000e-01 -2.283861151113e-10 -1.062138396662e-14 
4.000000000000e-01 -2.374259827073e-10 -1.320853340996e-14 
4.250000000000e-01 -2.808802388053e-10 -1.958582623532e-14 
4.500000000000e-01 -3.607874977400e-10 -3.343296019323e-14 
4.750000000000e-01 -3.993650123911e-10 -5.124582741785e-14 
5.000000000000e-01 -3.410197887437e-10 -7.515162438031e-14 
5.250000000000e-01 -2.448534929751e-10 -1.213634808954e-13 
5.500000000000e-01 -2.070979668332e-10 -2.347396515018e-13 
5.750000000000e-01 -2.164872642683e-10 -5.399806567741e-13 
6.000000000000e-01 -2.058846277079e-10 9.144009700053e-10 
 ZONE T="TIME=8.000000000000e+02"
0.000000000000e+00 -2.998780718852e-10 -2.541997118825e-15 
2.500000000000e-02 -2.836310162250e-10 -3.845743791047e-15 
5.000000000000e-02 -2.438335807980e-10 -5.666951680876e-15 
7.500000000000e-02 -2.184202101804e-10 -7.401577936793e-15 
1.000000000000e-01 -2.145565415473e-10 -9.504400557794e-15 
1.250000000000e-01 -2.130737041042e-10 -1.021081007850e-14 
1.500000000000e-01 -2.180945064617e-10 -9.335977684656e-15 
1.750000000000e-01 -2.141451992048e-10 -8.646432495668e-15 
2.000000000000e-01 -1.882763072349e-10 -9.781743417433e-15 
2.250000000000e-01 -1.654710812835e-10 -1.058684089813e-14 
2.500000000000e-01 -1.570291216516e-10 -8.418829164987e-15 
2.750000000000e-01 -1.593909882882e-10 -5.214206329924e-15 
3.000000000000e-01 -1.797235226684e-10 -3.312664276308e-15 
3.250000000000e-01 -1.990431332599e-10 -3.543174206581e-15 
3.500000000000e-01 -2.113555102334e-10 -6.263543707924e-15 
3.750000000000e-01 -2.216248324469e-10 -9.504845891624e-15 
4.000000000000e-01 -2.306934615787e-10 -1.172635072810e-14 
4.250000000000e-01 -2.732450659561e-10 -1.730981105571e-14 
4.500000000000e-01 -3.510815826445e-10 -2.954538913925e-14 
4.750000000000e-01 -3.888854454684e-10 -4.521515032083e-14 
5.000000000000e-01 -3.325119992082e-10 -6.617861577260e-14 
5.250000000000e-01 -2.391886712599e-10 -1.068442619460e-13 
5.500000000000e-01 -2.030101919924e-10 -2.068555449156e-13 
5.750000000000e-01 -2.132866337247e-10 -4.763883531749e-13 
6.000000000000e-01 -2.041260709344e-10 8.589804876249e-10 
 ZONE T="TIME=8.500000000000e+02"
0.000000000000e+00 -2.909229484660e-10 -2.257829482357e-15 
2.500000000000e-02 -2.750649261101e-10 -3.413595973486e-15 
5.000000000000e-02 -2.364448383903e-10 -5.032248283018e-15 
7.500000000000e-02 -2.118846979733e-10 -6.587623423167e-15 
1.000000000000e-01 -2.080024861097e-10 -8.475501846957e-15 
1.250000000000e-01 -2.063027486748e-10 -9.114700434233e-15 
1.500000000000e-01 -2.110461824333e-10 -8.336094166006e-15 
1.750000000000e-01 -2.072890154750e-10 -7.716232210482e-15 
2.000000000000e-01 -1.822493512348e-10 -8.734046874416e-15 
2.250000000000e-01 -1.599176400390e-10 -9.467599297946e-15 
2.500000000000e-01 -1.515560018191e-10 -7.544311962916e-15 
2.750000000000e-01 -1.538720251416e-10 -4.692426191173e-15 
3.000000000000e-01 -1.736200931452e-10 -2.996148734095e-15 
3.250000000000e-01 -1.925036204192e-10 -3.196645655084e-15 
3.500000000000e-01 -2.046250963369e-10 -5.622534621582e-15 
3.750000000000e-01 -2.147049247540e-10 -8.493696801029e-15 
4.000000000000e-01 -2.237991360509e-10 -1.042165154488e-14 
4.250000000000e-01 -2.654165745717e-10 -1.532024702625e-14 
4.500000000000e-01 -3.411170535526e-10 -2.605460665178e-14 
4.750000000000e-01 -3.780912036110e-10 -3.966804575347e-14 
5.000000000000e-01 -3.236862711475e-10 -5.785646066611e-14 
5.250000000000e-01 -2.332284397202e-10 -9.346760405538e-14 
5.500000000000e-01 -1.985705632929e-10 -1.813852468754e-13 
5.750000000000e-01 -2.095848758804e-10 -4.183661484811e-13 
6.000000000000e-01 -2.017403172782e-10 8.047695950822e-10 
 ZONE T="TIME=9.000000000000e+02"
0.000000000000e+00 -2.815522615375e-10 -2.037537695835e-15 
2.500000000000e-02 -2.661362369263e-10 -3.081377237093e-15 
5.000000000000e-02 -2.287498728808e-10 -4.540155780323e-15 
7.500000000000e-02 -2.050422583897e-10 -5.934678057192e-15 
1.000000000000e-01 -2.011819414285e-10 -7.629415073333e-15 
1.250000000000e-01 -1.993427202715e-10 -8.205570071703e-15 
1.500000000000e-01 -2.038343250752e-10 -7.510841239802e-15 
1.750000000000e-01 -2.002474141829e-10 -6.963637796697e-15 
2.000000000000e-01 -1.760595408940e-10 -7.890515143162e-15 
2.250000000000e-01 -1.543098667212e-10 -8.554409668205e-15 
2.500000000000e-01 -1.461085383282e-10 -6.817478039381e-15 
2.750000000000e-01 -1.483868656285e-10 -4.238315800461e-15 
3.000000000000e-01 -1.675456273034e-10 -2.696013361606e-15 
3.250000000000e-01 -1.859592747361e-10 -2.863426992883e-15 
3.500000000000e-01 -1.978558976836e-10 -5.033977560031e-15 
3.750000000000e-01 -2.077333665546e-10 -7.581826392735e-15 
4.000000000000e-01 -2.167954386694e-10 -9.239612877456e-15 
4.250000000000e-01 -2.574024251693e-10 -1.353549547434e-14 
4.500000000000e-01 -3.309257004647e-10 -2.302938128713e-14 
4.750000000000e-01 -3.670174633570e-10 -3.501154212010e-14 
5.000000000000e-01 -3.145523218629e-10 -5.097187112428e-14 
5.250000000000e-01 -2.269857346436e-10 -8.234861060043e-14 
5.500000000000e-01 -1.937908189812e-10 -1.600073058713e-13 
5.750000000000e-01 -2.053575311186e-10 -3.695146362222e-13 
6.000000000000e-01 -1.986435494726e-10 7.564448323361e-10 
 ZONE T="TIME=9.500000000000e+02"
0.000000000000e+00 -2.722890898478e-10 -1.825377851220e-15 
2.500000000000e-02 -2.573108773753e-10 -2.759642810890e-15 
5.000000000000e-02 -2.211429041524e-10 -4.065444273840e-15 
7.500000000000e-02 -1.982765499905e-10 -5.316263751324e-15 
1.000000000000e-01 -1.944428285702e-10 -6.838014572401e-15 
1.250000000000e-01 -1.924742566833e-10 -7.357535164439e-15 
1.500000000000e-01 -1.967227571192e-10 -6.736853958025e-15 
1.750000000000e-01 -1.933033066481e-10 -6.246811722826e-15 
2.000000000000e-01 -1.699535743262e-10 -7.082024967976e-15 
2.250000000000e-01 -1.487789383157e-10 -7.683966747761e-15 
2.500000000000e-01 -1.407351340944e-10 -6.128320669872e-15 
2.750000000000e-01 -1.429701118923e-10 -3.812931208191e-15 
3.000000000000e-01 -1.615366154096e-10 -2.422103335030e-15 